                         Program Version 5.0.4 -  RELEASE  -
|  1> ! B3LYP DEF2-SVP TightSCF
|  2> %elprop
|  3> Polar 1
|  4> end
|  5> * xyzfile 0 1 _230.xyz
|  6>
|  7>                          ****END OF INPUT****

CARTESIAN COORDINATES (ANGSTROEM)
---------------------------------
  C     -5.520348    2.347038    0.876598
  C     -4.729132    1.228890    1.484572
  S     -4.230292    0.034439    0.247069
  O     -3.538486   -1.064125    0.979299
  O     -5.533982   -0.488852   -0.340002
  N     -3.260197    0.730203   -0.955466
  C     -2.062151    1.269490   -0.468994
  C     -0.806210    0.500107   -0.638968
  C     -0.721640   -0.817264   -0.016457
  C     -0.391035   -0.942838    1.339024
  C     -0.304187   -2.183050    1.925928
  C     -0.531960   -3.352037    1.232126
  C     -0.858113   -3.241320   -0.102580
  C     -0.946502   -2.002750   -0.695383
  F     -0.438408   -4.574528    1.842649
  N      0.302840    1.311535   -0.116546
  C      1.628188    0.848058   -0.138610
  N      1.898193   -0.386427   -0.657260
  C      3.181714   -0.835421   -0.678702
  C      4.213996   -0.068051   -0.187018
  C      3.874459    1.166931    0.322050
  N      2.609108    1.619527    0.347681
  C      5.578122   -0.567970   -0.220058
  N      5.952389   -1.761281   -0.705397
  N      7.266640   -1.903010   -0.583945
  C      7.719922   -0.783460   -0.015149
  O      6.686249   -0.003699    0.190693
  C      9.152006   -0.466121    0.329939
  F      9.522314    0.733144   -0.220045
  F      9.158625   -0.294338    1.715357
  C     -3.934072    1.416367   -1.988815
  C     -4.197909    0.543091   -3.197355
  F     -4.972442   -0.529355   -2.843109
  F     -3.028870    0.161395   -3.816880
  F     -4.924845    1.256098   -4.152106
  H     -6.311975    1.975708    0.211701
  H     -4.835714    3.083209    0.407604
  H     -6.059107    2.922358    1.675386
  H     -5.411050    0.688822    2.189096
  H     -3.873102    1.569180    2.072539
  H     -2.182449    1.432510    0.644423
  H     -1.843555    2.308592   -0.869932
  H     -0.531418    0.364861   -1.723641
  H     -0.210481   -0.016664    1.889086
  H     -0.049321   -2.283244    2.971518
  H     -1.040206   -4.150079   -0.662163
  H     -1.204509   -1.914077   -1.751404
  H      0.101969    2.252234    0.279387
  H      3.351520   -1.802765   -1.091007
  H      4.647790    1.797888    0.715687
  H      9.783186   -1.311926    0.037654
  H     -4.872662    1.940020   -1.690700
  H     -3.272901    2.242957   -2.363270

 Total Charge           Charge          ....    0
 Multiplicity           Mult            ....    1
 Number of Electrons    NEL             ....  268
 Basis Dimension        Dim             ....  584

ORBITAL ENERGIES
----------------

  NO   OCC          E(Eh)            E(eV)
   0   2.0000     -89.082621     -2424.0614
   1   2.0000     -24.730936      -672.9630
   2   2.0000     -24.717927      -672.6090
   3   2.0000     -24.717812      -672.6059
   4   2.0000     -24.717181      -672.5887
   5   2.0000     -24.704316      -672.2386
   6   2.0000     -24.682321      -671.6401
   7   2.0000     -19.254480      -523.9410
   8   2.0000     -19.121316      -520.3175
   9   2.0000     -19.116919      -520.1978
  10   2.0000     -14.406285      -392.0149
  11   2.0000     -14.375928      -391.1889
  12   2.0000     -14.368382      -390.9835
  13   2.0000     -14.356007      -390.6468
  14   2.0000     -14.342256      -390.2726
  15   2.0000     -14.339518      -390.1981
  16   2.0000     -10.443108      -284.1714
  17   2.0000     -10.382884      -282.5326
  18   2.0000     -10.312959      -280.6299
  19   2.0000     -10.306288      -280.4484
  20   2.0000     -10.297767      -280.2165
  21   2.0000     -10.280830      -279.7556
  22   2.0000     -10.275170      -279.6016
  23   2.0000     -10.258322      -279.1431
  24   2.0000     -10.257013      -279.1075
  25   2.0000     -10.254980      -279.0522
  26   2.0000     -10.251046      -278.9451
  27   2.0000     -10.250128      -278.9202
  28   2.0000     -10.228856      -278.3413
  29   2.0000     -10.225852      -278.2596
  30   2.0000     -10.186056      -277.1767
  31   2.0000     -10.185292      -277.1559
  32   2.0000     -10.182502      -277.0800
  33   2.0000     -10.182096      -277.0689
  34   2.0000     -10.181137      -277.0428
  35   2.0000      -8.145907      -221.6614
  36   2.0000      -6.115252      -166.4045
  37   2.0000      -6.113307      -166.3515
  38   2.0000      -6.112292      -166.3239
  39   2.0000      -1.279547       -34.8182
  40   2.0000      -1.245604       -33.8946
  41   2.0000      -1.205330       -32.7987
  42   2.0000      -1.205091       -32.7922
  43   2.0000      -1.191750       -32.4292
  44   2.0000      -1.183804       -32.2130
  45   2.0000      -1.180936       -32.1349
  46   2.0000      -1.097855       -29.8741
  47   2.0000      -1.007769       -27.4228
  48   2.0000      -0.997108       -27.1327
  49   2.0000      -0.996657       -27.1204
  50   2.0000      -0.961684       -26.1687
  51   2.0000      -0.938152       -25.5284
  52   2.0000      -0.885505       -24.0958
  53   2.0000      -0.872735       -23.7483
  54   2.0000      -0.855286       -23.2735
  55   2.0000      -0.828504       -22.5447
  56   2.0000      -0.824758       -22.4428
  57   2.0000      -0.804153       -21.8821
  58   2.0000      -0.777296       -21.1513
  59   2.0000      -0.744986       -20.2721
  60   2.0000      -0.741143       -20.1675
  61   2.0000      -0.734126       -19.9766
  62   2.0000      -0.706125       -19.2146
  63   2.0000      -0.702232       -19.1087
  64   2.0000      -0.684797       -18.6343
  65   2.0000      -0.670319       -18.2403
  66   2.0000      -0.667677       -18.1684
  67   2.0000      -0.656831       -17.8733
  68   2.0000      -0.626734       -17.0543
  69   2.0000      -0.622184       -16.9305
  70   2.0000      -0.615515       -16.7490
  71   2.0000      -0.596734       -16.2380
  72   2.0000      -0.590934       -16.0801
  73   2.0000      -0.584696       -15.9104
  74   2.0000      -0.583057       -15.8658
  75   2.0000      -0.577759       -15.7216
  76   2.0000      -0.568781       -15.4773
  77   2.0000      -0.565247       -15.3812
  78   2.0000      -0.559674       -15.2295
  79   2.0000      -0.550235       -14.9726
  80   2.0000      -0.546763       -14.8782
  81   2.0000      -0.540085       -14.6965
  82   2.0000      -0.533319       -14.5123
  83   2.0000      -0.532779       -14.4977
  84   2.0000      -0.523137       -14.2353
  85   2.0000      -0.512016       -13.9327
  86   2.0000      -0.505373       -13.7519
  87   2.0000      -0.497847       -13.5471
  88   2.0000      -0.493438       -13.4271
  89   2.0000      -0.479052       -13.0357
  90   2.0000      -0.468226       -12.7411
  91   2.0000      -0.465127       -12.6568
  92   2.0000      -0.462649       -12.5893
  93   2.0000      -0.461841       -12.5673
  94   2.0000      -0.456723       -12.4281
  95   2.0000      -0.455597       -12.3974
  96   2.0000      -0.452863       -12.3230
  97   2.0000      -0.447324       -12.1723
  98   2.0000      -0.445600       -12.1254
  99   2.0000      -0.438618       -11.9354
 100   2.0000      -0.436933       -11.8895
 101   2.0000      -0.435888       -11.8611
 102   2.0000      -0.432924       -11.7804
 103   2.0000      -0.427487       -11.6325
 104   2.0000      -0.426669       -11.6102
 105   2.0000      -0.419174       -11.4063
 106   2.0000      -0.417476       -11.3601
 107   2.0000      -0.414432       -11.2773
 108   2.0000      -0.412658       -11.2290
 109   2.0000      -0.411304       -11.1921
 110   2.0000      -0.408386       -11.1127
 111   2.0000      -0.403894       -10.9905
 112   2.0000      -0.394342       -10.7306
 113   2.0000      -0.385534       -10.4909
 114   2.0000      -0.380691       -10.3591
 115   2.0000      -0.379295       -10.3211
 116   2.0000      -0.371725       -10.1151
 117   2.0000      -0.364977        -9.9315
 118   2.0000      -0.352585        -9.5943
 119   2.0000      -0.342843        -9.3292
 120   2.0000      -0.337389        -9.1808
 121   2.0000      -0.330689        -8.9985
 122   2.0000      -0.327778        -8.9193
 123   2.0000      -0.323584        -8.8052
 124   2.0000      -0.308232        -8.3874
 125   2.0000      -0.306029        -8.3275
 126   2.0000      -0.298701        -8.1281
 127   2.0000      -0.295431        -8.0391
 128   2.0000      -0.281658        -7.6643
 129   2.0000      -0.274491        -7.4693
 130   2.0000      -0.260964        -7.1012
 131   2.0000      -0.252546        -6.8721
 132   2.0000      -0.243678        -6.6308
 133   2.0000      -0.228338        -6.2134
 134   0.0000      -0.069559        -1.8928
 135   0.0000      -0.061057        -1.6614
 136   0.0000      -0.018402        -0.5007
 137   0.0000      -0.012631        -0.3437
 138   0.0000      -0.006461        -0.1758

MULLIKEN ATOMIC CHARGES
-----------------------
   0 C :   -0.042128
   1 C :   -0.049024
   2 S :    0.807834
   3 O :   -0.434159
   4 O :   -0.473769
   5 N :   -0.424948
   6 C :    0.151223
   7 C :    0.210498
   8 C :    0.018332
   9 C :    0.020614
  10 C :   -0.030267
  11 C :    0.306514
  12 C :   -0.038379
  13 C :    0.020111
  14 F :   -0.214977
  15 N :   -0.202718
  16 C :    0.065888
  17 N :   -0.155435
  18 C :    0.112643
  19 C :   -0.050409
  20 C :    0.079294
  21 N :   -0.106003
  22 C :    0.156549
  23 N :   -0.147534
  24 N :   -0.092702
  25 C :   -0.010341
  26 O :   -0.139296
  27 C :    0.558771
  28 F :   -0.206236
  29 F :   -0.236001
  30 C :    0.096495
  31 C :    0.540021
  32 F :   -0.160562
  33 F :   -0.191078
  34 F :   -0.210179
  35 H :    0.066159
  36 H :    0.025126
  37 H :    0.040804
  38 H :    0.092378
  39 H :    0.055336
  40 H :   -0.002761
  41 H :    0.024979
  42 H :    0.007319
  43 H :   -0.041479
  44 H :   -0.027982
  45 H :   -0.020128
  46 H :   -0.035972
  47 H :    0.129870
  48 H :    0.018449
  49 H :    0.002329
  50 H :    0.033299
  51 H :    0.059392
  52 H :    0.044239
Sum of atomic charges:    0.0000000

LOEWDIN ATOMIC CHARGES
----------------------
   0 C :   -0.079110
   1 C :   -0.147357
   2 S :    1.224618
   3 O :   -0.501534
   4 O :   -0.537311
   5 N :   -0.209759
   6 C :    0.003983
   7 C :    0.032363
   8 C :   -0.045107
   9 C :   -0.013291
  10 C :   -0.043810
  11 C :    0.094629
  12 C :   -0.037935
  13 C :    0.000890
  14 F :   -0.087921
  15 N :   -0.026216
  16 C :    0.077070
  17 N :   -0.115904
  18 C :    0.102195
  19 C :   -0.117048
  20 C :    0.071345
  21 N :   -0.121514
  22 C :    0.029846
  23 N :   -0.103998
  24 N :   -0.077595
  25 C :   -0.036345
  26 O :    0.067660
  27 C :    0.218781
  28 F :   -0.091057
  29 F :   -0.118774
  30 C :   -0.023530
  31 C :    0.215140
  32 F :   -0.058445
  33 F :   -0.083538
  34 F :   -0.106223
  35 H :    0.036369
  36 H :    0.022655
  37 H :    0.043975
  38 H :    0.063162
  39 H :    0.030088
  40 H :    0.016705
  41 H :    0.027943
  42 H :    0.034474
  43 H :    0.015355
  44 H :    0.029402
  45 H :    0.033538
  46 H :    0.024466
  47 H :    0.087078
  48 H :    0.033206
  49 H :    0.025930
  50 H :    0.031496
  51 H :    0.041157
  52 H :    0.047802

  Mayer bond orders larger than 0.100000
B(  0-C ,  1-C ) :   1.0685 B(  0-C , 35-H ) :   0.9551 B(  0-C , 36-H ) :   0.9632
B(  0-C , 37-H ) :   0.9506 B(  1-C ,  2-S ) :   0.8611 B(  1-C , 38-H ) :   0.9239
B(  1-C , 39-H ) :   0.9283 B(  2-S ,  3-O ) :   1.6685 B(  2-S ,  4-O ) :   1.6162
B(  2-S ,  5-N ) :   0.8686 B(  5-N ,  6-C ) :   0.9863 B(  5-N , 30-C ) :   0.9508
B(  6-C ,  7-C ) :   1.0505 B(  6-C , 40-H ) :   0.9013 B(  6-C , 41-H ) :   0.9226
B(  7-C ,  8-C ) :   0.9863 B(  7-C , 15-N ) :   0.9565 B(  7-C , 42-H ) :   0.8964
B(  8-C ,  9-C ) :   1.3757 B(  8-C , 13-C ) :   1.4158 B(  9-C , 10-C ) :   1.3639
B(  9-C , 43-H ) :   0.9694 B( 10-C , 11-C ) :   1.3539 B( 10-C , 44-H ) :   0.9865
B( 11-C , 12-C ) :   1.3579 B( 11-C , 14-F ) :   1.0776 B( 12-C , 13-C ) :   1.3436
B( 12-C , 45-H ) :   0.9897 B( 13-C , 46-H ) :   0.9823 B( 15-N , 16-C ) :   1.1661
B( 15-N , 47-H ) :   0.9092 B( 16-C , 17-N ) :   1.4003 B( 16-C , 21-N ) :   1.4638
B( 17-N , 18-C ) :   1.5383 B( 18-C , 19-C ) :   1.3352 B( 18-C , 48-H ) :   0.9826
B( 19-C , 20-C ) :   1.3233 B( 19-C , 22-C ) :   1.0302 B( 20-C , 21-N ) :   1.5477
B( 20-C , 49-H ) :   0.9885 B( 22-C , 23-N ) :   1.6064 B( 22-C , 26-O ) :   1.2044
B( 23-N , 24-N ) :   1.2494 B( 24-N , 25-C ) :   1.6117 B( 25-C , 26-O ) :   1.1706
B( 25-C , 27-C ) :   1.0038 B( 27-C , 28-F ) :   1.0961 B( 27-C , 29-F ) :   1.0523
B( 27-C , 50-H ) :   0.9442 B( 30-C , 31-C ) :   1.0248 B( 30-C , 51-H ) :   0.9117
B( 30-C , 52-H ) :   0.9146 B( 31-C , 32-F ) :   1.1559 B( 31-C , 33-F ) :   1.1001
B( 31-C , 34-F ) :   1.0789

FINAL SINGLE POINT ENERGY     -2283.578211613374

DIPOLE MOMENT
-------------
                                X             Y             Z
Electronic contribution:     31.83479     -13.19528     -12.61467
Nuclear contribution   :    -32.18202      16.67426      13.26138
                        -----------------------------------------
Total Dipole Moment    :     -0.34723       3.47898       0.64671
                        -----------------------------------------
Magnitude (a.u.)       :      3.55557
Magnitude (Debye)      :      9.03754

Rotational constants in cm-1:     0.007304     0.001305     0.001244
Rotational constants in MHz :   218.961353    39.134438    37.279713

                             ****ORCA TERMINATED NORMALLY****
TOTAL RUN TIME: 0 days 0 hours 9 minutes 18 seconds 655 msec
