                         Program Version 5.0.3 -  RELEASE  -
|  1> ! B3LYP DEF2-SVP TightSCF
|  2> %elprop
|  3> Polar 1
|  4> end
|  5> * xyzfile 0 1 _66.xyz
|  6>
|  7>                          ****END OF INPUT****

CARTESIAN COORDINATES (ANGSTROEM)
---------------------------------
  C      5.700646   -1.671768    1.403040
  C      4.662173   -2.035081    0.374433
  O      3.991419   -1.073787   -0.245197
  C      3.173928   -0.178728    0.330349
  C      3.805421    0.783347    1.336832
  C      4.608251    1.703294    0.449599
  C      4.128810    1.426834   -0.977693
  N      2.867699    0.789918   -0.701620
  C      1.598075    0.991721   -1.254100
  O      1.383864    1.771138   -2.229211
  C      0.415374    0.292678   -0.719710
  C     -0.790636    0.507993   -1.214283
  C     -1.955925   -0.179868   -0.701254
  C     -3.091933    0.403452   -0.185429
  N     -3.973042   -0.576219    0.129692
  C     -3.456658   -1.787836   -0.161485
  C     -3.975142   -3.059506   -0.032245
  C     -3.228590   -4.146863   -0.430566
  C     -1.976637   -3.903021   -0.948178
  C     -1.457237   -2.644050   -1.078051
  C     -2.186163   -1.536078   -0.685025
  C     -3.341206    1.833061    0.010023
  C     -3.158816    2.671840   -1.236261
  C     -2.353817    2.334996    1.067856
  C     -4.685118    2.039358    0.589376
  C     -5.701891    2.369992   -0.177035
  N      0.664964   -0.578883    0.373478
  C      1.947928   -0.781934    0.926487
  O      2.108819   -1.484824    1.951202
  H      6.569112   -2.416071    1.363130
  H      6.177327   -0.722228    1.132256
  H      5.351023   -1.756020    2.450213
  H      5.267662   -2.576314   -0.432844
  H      4.022009   -2.893317    0.749032
  H      4.334680    0.320942    2.150382
  H      2.923462    1.329424    1.776089
  H      4.363473    2.778120    0.683681
  H      5.674045    1.500946    0.495086
  H      4.826195    0.678535   -1.437403
  H      4.046028    2.353076   -1.565176
  H     -0.841483    1.228892   -2.026731
  H     -4.923899   -0.452808    0.540312
  H     -4.960264   -3.212849    0.378190
  H     -3.611246   -5.166362   -0.341568
  H     -1.373335   -4.735729   -1.267089
  H     -0.457615   -2.460702   -1.492706
  H     -3.834254    3.569070   -1.105524
  H     -2.132752    3.093224   -1.283641
  H     -3.497022    2.148905   -2.128105
  H     -2.195471    1.492192    1.769307
  H     -2.773966    3.187389    1.622029
  H     -1.373496    2.555915    0.584758
  H     -4.853820    1.921567    1.653187
  H     -5.557175    2.492694   -1.240618
  H     -6.706784    2.528575    0.225371
  H     -0.186996   -1.068240    0.783355

 Total Charge           Charge          ....    0
 Multiplicity           Mult            ....    1
 Number of Electrons    NEL             ....  210
 Basis Dimension        Dim             ....  541

ORBITAL ENERGIES
----------------

  NO   OCC          E(Eh)            E(eV)
   0   2.0000     -19.154747      -521.2272
   1   2.0000     -19.109470      -519.9951
   2   2.0000     -19.090134      -519.4689
   3   2.0000     -14.377806      -391.2400
   4   2.0000     -14.374937      -391.1619
   5   2.0000     -14.357739      -390.6939
   6   2.0000     -10.297045      -280.1969
   7   2.0000     -10.291741      -280.0525
   8   2.0000     -10.289393      -279.9886
   9   2.0000     -10.236750      -278.5561
  10   2.0000     -10.230358      -278.3822
  11   2.0000     -10.221475      -278.1405
  12   2.0000     -10.219228      -278.0793
  13   2.0000     -10.207875      -277.7704
  14   2.0000     -10.206333      -277.7284
  15   2.0000     -10.195605      -277.4365
  16   2.0000     -10.189602      -277.2732
  17   2.0000     -10.189524      -277.2710
  18   2.0000     -10.189409      -277.2679
  19   2.0000     -10.186243      -277.1818
  20   2.0000     -10.185757      -277.1685
  21   2.0000     -10.183306      -277.1018
  22   2.0000     -10.183043      -277.0947
  23   2.0000     -10.181547      -277.0540
  24   2.0000     -10.176118      -276.9062
  25   2.0000     -10.173071      -276.8233
  26   2.0000     -10.171886      -276.7911
  27   2.0000     -10.170402      -276.7507
  28   2.0000     -10.168316      -276.6939
  29   2.0000      -1.099919       -29.9303
  30   2.0000      -1.017814       -27.6961
  31   2.0000      -1.001809       -27.2606
  32   2.0000      -0.996322       -27.1113
  33   2.0000      -0.945944       -25.7404
  34   2.0000      -0.922815       -25.1111
  35   2.0000      -0.857834       -23.3428
  36   2.0000      -0.838364       -22.8130
  37   2.0000      -0.808766       -22.0076
  38   2.0000      -0.790400       -21.5079
  39   2.0000      -0.778631       -21.1876
  40   2.0000      -0.758249       -20.6330
  41   2.0000      -0.751759       -20.4564
  42   2.0000      -0.738169       -20.0866
  43   2.0000      -0.730372       -19.8744
  44   2.0000      -0.711023       -19.3479
  45   2.0000      -0.688610       -18.7380
  46   2.0000      -0.682537       -18.5728
  47   2.0000      -0.648393       -17.6437
  48   2.0000      -0.642741       -17.4899
  49   2.0000      -0.637378       -17.3439
  50   2.0000      -0.614350       -16.7173
  51   2.0000      -0.596574       -16.2336
  52   2.0000      -0.594948       -16.1893
  53   2.0000      -0.581453       -15.8221
  54   2.0000      -0.570874       -15.5343
  55   2.0000      -0.555475       -15.1152
  56   2.0000      -0.548530       -14.9263
  57   2.0000      -0.530432       -14.4338
  58   2.0000      -0.524966       -14.2850
  59   2.0000      -0.509241       -13.8571
  60   2.0000      -0.504141       -13.7184
  61   2.0000      -0.496386       -13.5073
  62   2.0000      -0.491124       -13.3642
  63   2.0000      -0.480908       -13.0862
  64   2.0000      -0.468848       -12.7580
  65   2.0000      -0.466628       -12.6976
  66   2.0000      -0.461228       -12.5507
  67   2.0000      -0.460077       -12.5193
  68   2.0000      -0.448836       -12.2134
  69   2.0000      -0.446431       -12.1480
  70   2.0000      -0.437309       -11.8998
  71   2.0000      -0.436696       -11.8831
  72   2.0000      -0.428720       -11.6661
  73   2.0000      -0.421772       -11.4770
  74   2.0000      -0.417240       -11.3537
  75   2.0000      -0.416279       -11.3275
  76   2.0000      -0.412047       -11.2124
  77   2.0000      -0.408818       -11.1245
  78   2.0000      -0.404390       -11.0040
  79   2.0000      -0.394656       -10.7391
  80   2.0000      -0.388771       -10.5790
  81   2.0000      -0.383542       -10.4367
  82   2.0000      -0.379556       -10.3283
  83   2.0000      -0.375859       -10.2277
  84   2.0000      -0.366584        -9.9752
  85   2.0000      -0.365039        -9.9332
  86   2.0000      -0.364163        -9.9094
  87   2.0000      -0.360136        -9.7998
  88   2.0000      -0.350609        -9.5406
  89   2.0000      -0.347649        -9.4600
  90   2.0000      -0.345859        -9.4113
  91   2.0000      -0.342135        -9.3100
  92   2.0000      -0.335111        -9.1188
  93   2.0000      -0.333396        -9.0722
  94   2.0000      -0.315645        -8.5891
  95   2.0000      -0.301797        -8.2123
  96   2.0000      -0.290572        -7.9069
  97   2.0000      -0.286727        -7.8022
  98   2.0000      -0.278893        -7.5891
  99   2.0000      -0.255415        -6.9502
 100   2.0000      -0.251407        -6.8411
 101   2.0000      -0.246102        -6.6968
 102   2.0000      -0.231322        -6.2946
 103   2.0000      -0.227568        -6.1924
 104   2.0000      -0.199611        -5.4317
 105   0.0000      -0.043461        -1.1826
 106   0.0000      -0.013864        -0.3773
 107   0.0000      -0.003219        -0.0876
 108   0.0000      -0.002605        -0.0709
 109   0.0000       0.028435         0.7737

MULLIKEN ATOMIC CHARGES
-----------------------
   0 C :   -0.056593
   1 C :    0.169414
   2 O :   -0.264968
   3 C :    0.028422
   4 C :    0.178584
   5 C :   -0.025788
   6 C :    0.252895
   7 N :   -0.320586
   8 C :    0.191413
   9 O :   -0.286086
  10 C :    0.056970
  11 C :   -0.107892
  12 C :    0.013041
  13 C :    0.028449
  14 N :   -0.006886
  15 C :    0.081235
  16 C :   -0.054394
  17 C :    0.015386
  18 C :    0.052707
  19 C :   -0.075195
  20 C :    0.038999
  21 C :   -0.206729
  22 C :    0.099507
  23 C :    0.080350
  24 C :   -0.071472
  25 C :   -0.004916
  26 N :   -0.130420
  27 C :    0.142045
  28 O :   -0.269378
  29 H :    0.013456
  30 H :    0.007762
  31 H :    0.043819
  32 H :    0.000879
  33 H :    0.007180
  34 H :    0.013261
  35 H :    0.000573
  36 H :    0.009057
  37 H :   -0.001188
  38 H :    0.017664
  39 H :    0.028547
  40 H :    0.018714
  41 H :    0.128555
  42 H :   -0.063326
  43 H :   -0.025182
  44 H :   -0.037997
  45 H :   -0.033303
  46 H :    0.017080
  47 H :    0.029293
  48 H :    0.019533
  49 H :    0.008424
  50 H :    0.012743
  51 H :    0.032975
  52 H :   -0.003119
  53 H :    0.018742
  54 H :    0.017146
  55 H :    0.170597
Sum of atomic charges:   -0.0000000

LOEWDIN ATOMIC CHARGES
----------------------
   0 C :   -0.084427
   1 C :    0.032835
   2 O :   -0.062988
   3 C :    0.034154
   4 C :   -0.024063
   5 C :   -0.037076
   6 C :    0.051806
   7 N :   -0.040567
   8 C :    0.092868
   9 O :   -0.254410
  10 C :   -0.022411
  11 C :   -0.016386
  12 C :   -0.105491
  13 C :    0.030422
  14 N :    0.084661
  15 C :   -0.003969
  16 C :   -0.050281
  17 C :   -0.037152
  18 C :   -0.039157
  19 C :   -0.033002
  20 C :   -0.051347
  21 C :   -0.070578
  22 C :   -0.030926
  23 C :   -0.023867
  24 C :   -0.020120
  25 C :   -0.047311
  26 N :   -0.001346
  27 C :    0.083446
  28 O :   -0.224739
  29 H :    0.036280
  30 H :    0.021977
  31 H :    0.029000
  32 H :    0.021144
  33 H :    0.010160
  34 H :    0.024454
  35 H :    0.035775
  36 H :    0.033022
  37 H :    0.019221
  38 H :    0.024411
  39 H :    0.030519
  40 H :    0.041471
  41 H :    0.098707
  42 H :    0.018665
  43 H :    0.027188
  44 H :    0.021453
  45 H :    0.025863
  46 H :    0.034223
  47 H :    0.032311
  48 H :    0.024268
  49 H :    0.023976
  50 H :    0.023230
  51 H :    0.029347
  52 H :    0.022153
  53 H :    0.023292
  54 H :    0.023808
  55 H :    0.115503

  Mayer bond orders larger than 0.100000
B(  0-C ,  1-C ) :   1.1121 B(  0-C , 29-H ) :   0.9543 B(  0-C , 30-H ) :   0.9512
B(  0-C , 31-H ) :   0.9602 B(  1-C ,  2-O ) :   1.0302 B(  1-C , 32-H ) :   0.9479
B(  1-C , 33-H ) :   0.9363 B(  2-O ,  3-C ) :   1.0804 B(  3-C ,  4-C ) :   1.0613
B(  3-C ,  7-N ) :   0.9339 B(  3-C , 27-C ) :   0.8908 B(  4-C ,  5-C ) :   1.1436
B(  4-C , 34-H ) :   0.9119 B(  4-C , 35-H ) :   0.8955 B(  5-C ,  6-C ) :   1.1282
B(  5-C , 36-H ) :   0.9116 B(  5-C , 37-H ) :   0.9119 B(  6-C ,  7-N ) :   0.9480
B(  6-C , 38-H ) :   0.9112 B(  6-C , 39-H ) :   0.9430 B(  7-N ,  8-C ) :   1.1347
B(  8-C ,  9-O ) :   2.0251 B(  8-C , 10-C ) :   0.9386 B( 10-C , 11-C ) :   1.8092
B( 10-C , 26-N ) :   1.0660 B( 11-C , 12-C ) :   0.9200 B( 11-C , 40-H ) :   0.9402
B( 12-C , 13-C ) :   1.4735 B( 12-C , 20-C ) :   1.2215 B( 13-C , 14-N ) :   1.2614
B( 13-C , 21-C ) :   0.9690 B( 14-N , 15-C ) :   1.1723 B( 14-N , 41-H ) :   0.9033
B( 15-C , 16-C ) :   1.3033 B( 15-C , 20-C ) :   1.2500 B( 16-C , 17-C ) :   1.3825
B( 16-C , 42-H ) :   1.0031 B( 17-C , 18-C ) :   1.3204 B( 17-C , 43-H ) :   0.9880
B( 18-C , 19-C ) :   1.4141 B( 18-C , 44-H ) :   0.9855 B( 19-C , 20-C ) :   1.3000
B( 19-C , 45-H ) :   0.9880 B( 21-C , 22-C ) :   1.0859 B( 21-C , 23-C ) :   1.0378
B( 21-C , 24-C ) :   0.9500 B( 22-C , 46-H ) :   0.9473 B( 22-C , 47-H ) :   0.9482
B( 22-C , 48-H ) :   0.9497 B( 23-C , 49-H ) :   0.9573 B( 23-C , 50-H ) :   0.9627
B( 23-C , 51-H ) :   0.9518 B( 24-C , 25-C ) :   2.0002 B( 24-C , 52-H ) :   0.9765
B( 25-C , 53-H ) :   0.9347 B( 25-C , 54-H ) :   0.9519 B( 26-N , 27-C ) :   1.1703
B( 26-N , 55-H ) :   0.8688 B( 27-C , 28-O ) :   2.0341

FINAL SINGLE POINT ENERGY     -1280.843368971120

DIPOLE MOMENT
-------------
                                X             Y             Z
Electronic contribution:     -6.08254      -9.22880      -5.92629
Nuclear contribution   :      5.28576       9.66179       6.80181
                        -----------------------------------------
Total Dipole Moment    :     -0.79678       0.43299       0.87552
                        -----------------------------------------
Magnitude (a.u.)       :      1.26050
Magnitude (Debye)      :      3.20395

Rotational constants in cm-1:     0.009439     0.003524     0.002883
Rotational constants in MHz :   282.970246   105.638071    86.430824

                             ****ORCA TERMINATED NORMALLY****
TOTAL RUN TIME: 0 days 0 hours 25 minutes 28 seconds 792 msec
