                         Program Version 5.0.3 -  RELEASE  -
|  1> ! B3LYP DEF2-SVP TightSCF
|  2> %elprop
|  3> Polar 1
|  4> end
|  5> * xyzfile 0 1 _7.xyz
|  6>
|  7>                          ****END OF INPUT****

CARTESIAN COORDINATES (ANGSTROEM)
---------------------------------
  C     -0.370056    1.110658   -0.038036
  C      0.956503    0.838963    0.629883
  N      1.330623   -0.525606    0.649146
  C      0.309981   -1.464180    0.970338
  C     -0.987595   -1.214264    0.229446
  C     -1.410823    0.194729    0.601521
  C     -2.770859    0.516738    0.177431
  C     -3.706457    0.888268    1.117727
  C     -5.014004    1.205074    0.769204
  C     -5.422878    1.157283   -0.545982
  C     -4.493887    0.786527   -1.494844
  C     -3.182527    0.470132   -1.134357
  F     -6.710992    1.468003   -0.900603
  C     -2.008288   -2.237991    0.664664
  O     -3.204805   -2.043576    0.011526
  C      2.229293   -0.958577   -0.365673
  C      3.506606   -0.213374   -0.245766
  C      3.857287    0.529626    0.859905
  C      5.059743    1.219724    0.939202
  C      5.923649    1.146177   -0.141148
  C      5.567474    0.401297   -1.244272
  C      4.375589   -0.285178   -1.327932
  Cl     0.691832    0.000000    0.000000
  H     -0.333530    0.825677   -1.114310
  H     -0.606342    2.173490    0.114333
  H      1.713530    1.401619    0.007487
  H      0.923594    1.351918    1.604508
  H      0.709897   -2.486685    0.771464
  H      0.051048   -1.380564    2.064732
  H     -0.787840   -1.320100   -0.853741
  H     -1.257091    0.285723    1.695416
  H     -3.427354    0.938722    2.161965
  H     -5.749672    1.496912    1.506092
  H     -4.815572    0.748725   -2.531231
  H     -2.499561    0.187332   -1.915908
  H     -1.608277   -3.231047    0.371585
  H     -2.091386   -2.223600    1.759773
  H     -3.965889   -2.459633    0.489948
  H      1.773091   -0.819559   -1.371828
  H      2.409861   -2.052244   -0.207348
  H      3.184175    0.583950    1.704077
  H      5.301897    1.799390    1.835511
  H      6.858214    1.688103   -0.068380
  H      6.268747    0.369160   -2.066044
  H      4.114884   -0.867739   -2.209967
  H     -0.691832    0.000000    0.000000

 Total Charge           Charge          ....    0
 Multiplicity           Mult            ....    1
 Number of Electrons    NEL             ....  178
 Basis Dimension        Dim             ....  441

ORBITAL ENERGIES
----------------

  NO   OCC          E(Eh)            E(eV)
   0   2.0000    -101.581757     -2764.1801
   1   2.0000     -24.692786      -671.9249
   2   2.0000     -19.152327      -521.1613
   3   2.0000     -14.382490      -391.3674
   4   2.0000     -10.273669      -279.5607
   5   2.0000     -10.269157      -279.4380
   6   2.0000     -10.258805      -279.1563
   7   2.0000     -10.255312      -279.0612
   8   2.0000     -10.250239      -278.9232
   9   2.0000     -10.227498      -278.3044
  10   2.0000     -10.226110      -278.2666
  11   2.0000     -10.214467      -277.9498
  12   2.0000     -10.203247      -277.6445
  13   2.0000     -10.197373      -277.4846
  14   2.0000     -10.195042      -277.4212
  15   2.0000     -10.194401      -277.4038
  16   2.0000     -10.193882      -277.3896
  17   2.0000     -10.189441      -277.2688
  18   2.0000     -10.177510      -276.9441
  19   2.0000     -10.175696      -276.8948
  20   2.0000     -10.175233      -276.8822
  21   2.0000     -10.173309      -276.8298
  22   2.0000     -10.172555      -276.8093
  23   2.0000      -9.611849      -261.5517
  24   2.0000      -7.377534      -200.7529
  25   2.0000      -7.366214      -200.4449
  26   2.0000      -7.351654      -200.0487
  27   2.0000      -1.497160       -40.7398
  28   2.0000      -1.191081       -32.4110
  29   2.0000      -1.150894       -31.3174
  30   2.0000      -1.050458       -28.5844
  31   2.0000      -1.035637       -28.1811
  32   2.0000      -0.913964       -24.8702
  33   2.0000      -0.875926       -23.8352
  34   2.0000      -0.846465       -23.0335
  35   2.0000      -0.839503       -22.8440
  36   2.0000      -0.794217       -21.6118
  37   2.0000      -0.764946       -20.8152
  38   2.0000      -0.757540       -20.6137
  39   2.0000      -0.751623       -20.4527
  40   2.0000      -0.734383       -19.9836
  41   2.0000      -0.712954       -19.4005
  42   2.0000      -0.674673       -18.3588
  43   2.0000      -0.649514       -17.6742
  44   2.0000      -0.641000       -17.4425
  45   2.0000      -0.623455       -16.9651
  46   2.0000      -0.604883       -16.4597
  47   2.0000      -0.598968       -16.2988
  48   2.0000      -0.590696       -16.0736
  49   2.0000      -0.586640       -15.9633
  50   2.0000      -0.569529       -15.4977
  51   2.0000      -0.551951       -15.0194
  52   2.0000      -0.543482       -14.7889
  53   2.0000      -0.538617       -14.6565
  54   2.0000      -0.530685       -14.4407
  55   2.0000      -0.519498       -14.1363
  56   2.0000      -0.509128       -13.8541
  57   2.0000      -0.498576       -13.5669
  58   2.0000      -0.480344       -13.0708
  59   2.0000      -0.472702       -12.8629
  60   2.0000      -0.464613       -12.6428
  61   2.0000      -0.458846       -12.4858
  62   2.0000      -0.454238       -12.3604
  63   2.0000      -0.446607       -12.1528
  64   2.0000      -0.438377       -11.9289
  65   2.0000      -0.436778       -11.8853
  66   2.0000      -0.435653       -11.8547
  67   2.0000      -0.428626       -11.6635
  68   2.0000      -0.420007       -11.4290
  69   2.0000      -0.413927       -11.2635
  70   2.0000      -0.405086       -11.0229
  71   2.0000      -0.399888       -10.8815
  72   2.0000      -0.395639       -10.7659
  73   2.0000      -0.390397       -10.6232
  74   2.0000      -0.378136       -10.2896
  75   2.0000      -0.358497        -9.7552
  76   2.0000      -0.351211        -9.5569
  77   2.0000      -0.347910        -9.4671
  78   2.0000      -0.347022        -9.4429
  79   2.0000      -0.333524        -9.0756
  80   2.0000      -0.300245        -8.1701
  81   2.0000      -0.295528        -8.0417
  82   2.0000      -0.263969        -7.1830
  83   2.0000      -0.250720        -6.8224
  84   2.0000      -0.248396        -6.7592
  85   2.0000      -0.245453        -6.6791
  86   2.0000      -0.187193        -5.0938
  87   2.0000      -0.140998        -3.8368
  88   2.0000      -0.057314        -1.5596
  89   0.0000      -0.019461        -0.5296
  90   0.0000      -0.011465        -0.3120
  91   0.0000      -0.008264        -0.2249
  92   0.0000       0.002392         0.0651
  93   0.0000       0.021246         0.5781

MULLIKEN ATOMIC CHARGES
-----------------------
   0 C :    0.508608
   1 C :   -0.090018
   2 N :   -0.138974
   3 C :    0.129244
   4 C :    0.056237
   5 C :    0.194562
   6 C :    0.114785
   7 C :   -0.036743
   8 C :   -0.055052
   9 C :    0.303757
  10 C :   -0.067540
  11 C :    0.066128
  12 F :   -0.215961
  13 C :    0.326488
  14 O :   -0.279632
  15 C :    0.119146
  16 C :   -0.053225
  17 C :    0.031032
  18 C :    0.014864
  19 C :    0.022371
  20 C :    0.047566
  21 C :   -0.003929
  22 Cl:    0.375330
  23 H :   -0.352577
  24 H :   -0.053801
  25 H :   -0.240691
  26 H :   -0.137347
  27 H :   -0.053885
  28 H :   -0.011147
  29 H :   -0.116818
  30 H :   -0.054331
  31 H :   -0.043903
  32 H :   -0.020128
  33 H :   -0.015175
  34 H :   -0.037109
  35 H :   -0.021672
  36 H :   -0.015488
  37 H :    0.188000
  38 H :    0.008663
  39 H :   -0.009276
  40 H :   -0.032019
  41 H :   -0.025820
  42 H :   -0.030648
  43 H :   -0.032889
  44 H :   -0.039429
  45 H :   -0.221555
Sum of atomic charges:   -0.0000000

LOEWDIN ATOMIC CHARGES
----------------------
   0 C :    0.006954
   1 C :   -0.314764
   2 N :   -0.126479
   3 C :    0.021940
   4 C :    0.022985
   5 C :    0.118523
   6 C :   -0.023671
   7 C :   -0.018355
   8 C :   -0.051103
   9 C :    0.089245
  10 C :   -0.043132
  11 C :    0.011414
  12 F :   -0.089693
  13 C :    0.069218
  14 O :   -0.111623
  15 C :   -0.060204
  16 C :   -0.039344
  17 C :   -0.032267
  18 C :   -0.022265
  19 C :   -0.035967
  20 C :   -0.019146
  21 C :   -0.026411
  22 Cl:    1.026922
  23 H :   -0.130298
  24 H :   -0.008731
  25 H :   -0.110568
  26 H :   -0.074460
  27 H :   -0.024057
  28 H :    0.006049
  29 H :   -0.026668
  30 H :    0.010644
  31 H :    0.018037
  32 H :    0.031893
  33 H :    0.034497
  34 H :    0.010311
  35 H :    0.006574
  36 H :    0.003400
  37 H :    0.103414
  38 H :   -0.015081
  39 H :    0.001729
  40 H :    0.014721
  41 H :    0.025374
  42 H :    0.022246
  43 H :    0.022260
  44 H :    0.023349
  45 H :   -0.297413

  Mayer bond orders larger than 0.100000
B(  0-C ,  1-C ) :   0.6123 B(  0-C ,  2-N ) :   0.1123 B(  0-C ,  4-C ) :   0.1196
B(  0-C ,  5-C ) :   0.6336 B(  0-C , 22-Cl) :   0.1767 B(  0-C , 23-H ) :   0.2952
B(  0-C , 24-H ) :   0.8688 B(  0-C , 45-H ) :   0.2264 B(  1-C , 22-Cl) :   1.6961
B(  1-C , 23-H ) :   0.1260 B(  1-C , 25-H ) :   0.4430 B(  1-C , 26-H ) :   0.7395
B(  2-N ,  3-C ) :   0.7986 B(  2-N , 15-C ) :   0.6352 B(  2-N , 22-Cl) :   0.9583
B(  3-C ,  4-C ) :   1.0908 B(  3-C , 22-Cl) :   0.1490 B(  3-C , 27-H ) :   0.8026
B(  3-C , 28-H ) :   0.8500 B(  4-C ,  5-C ) :   0.6665 B(  4-C , 13-C ) :   1.0035
B(  4-C , 29-H ) :   0.6748 B(  4-C , 45-H ) :   0.1845 B(  5-C ,  6-C ) :   1.0769
B(  5-C , 23-H ) :   0.1520 B(  5-C , 30-H ) :   0.7795 B(  5-C , 45-H ) :   0.3053
B(  6-C ,  7-C ) :   1.3683 B(  6-C , 11-C ) :   1.3490 B(  7-C ,  8-C ) :   1.3247
B(  7-C , 31-H ) :   0.9987 B(  8-C ,  9-C ) :   1.3673 B(  8-C , 32-H ) :   0.9883
B(  9-C , 10-C ) :   1.3468 B(  9-C , 12-F ) :   1.0749 B( 10-C , 11-C ) :   1.3647
B( 10-C , 33-H ) :   0.9877 B( 11-C , 34-H ) :   0.9695 B( 13-C , 14-O ) :   1.1269
B( 13-C , 35-H ) :   0.8972 B( 13-C , 36-H ) :   0.9221 B( 14-O , 37-H ) :   0.9499
B( 15-C , 16-C ) :   1.0209 B( 15-C , 38-H ) :   0.8331 B( 15-C , 39-H ) :   0.8187
B( 16-C , 17-C ) :   1.3752 B( 16-C , 21-C ) :   1.3819 B( 17-C , 18-C ) :   1.3860
B( 17-C , 40-H ) :   0.9644 B( 18-C , 19-C ) :   1.3747 B( 18-C , 41-H ) :   0.9823
B( 19-C , 20-C ) :   1.3778 B( 19-C , 42-H ) :   0.9889 B( 20-C , 21-C ) :   1.3726
B( 20-C , 43-H ) :   0.9830 B( 21-C , 44-H ) :   0.9928 B( 22-Cl, 23-H ) :   0.2026
B( 22-Cl, 25-H ) :   0.1987 B( 22-Cl, 38-H ) :   0.1396 B( 22-Cl, 45-H ) :   0.3097
B( 23-H , 25-H ) :   0.1036 B( 23-H , 29-H ) :   0.1387

FINAL SINGLE POINT ENERGY     -1423.361691624783

DIPOLE MOMENT
-------------
                                X             Y             Z
Electronic contribution:    -16.73197       4.65678      -3.32859
Nuclear contribution   :     16.20036      -6.15350       4.29671
                        -----------------------------------------
Total Dipole Moment    :     -0.53161      -1.49672       0.96811
                        -----------------------------------------
Magnitude (a.u.)       :      1.86011
Magnitude (Debye)      :      4.72803

Rotational constants in cm-1:     0.026979     0.003664     0.003519
Rotational constants in MHz :   808.823272   109.832110   105.483021

                             ****ORCA TERMINATED NORMALLY****
TOTAL RUN TIME: 0 days 0 hours 23 minutes 38 seconds 119 msec
