                         Program Version 5.0.3 -  RELEASE  -
|  1> ! B3LYP DEF2-SVP TightSCF
|  2> %elprop
|  3> Polar 1
|  4> end
|  5> * xyzfile 0 1 _62.xyz
|  6>
|  7>                          ****END OF INPUT****

CARTESIAN COORDINATES (ANGSTROEM)
---------------------------------
  C     -3.616342    0.165081    2.513136
  O     -2.849977   -0.907613    2.105124
  N     -2.163268   -0.618983    0.976961
  C     -2.618549   -1.193455   -0.276795
  C     -2.520074   -0.120696   -1.316070
  O     -3.199220   -0.223617   -2.367213
  N     -1.670474    0.999212   -1.117987
  C     -0.474753    0.768867   -0.288378
  C     -1.020791    0.227185    0.998994
  O     -0.497961    0.501692    2.104569
  C      0.388587   -0.173461   -1.014904
  C      1.592470   -0.679266   -0.344728
  C      1.557839   -1.921336    0.344783
  N      2.763027   -2.124754    0.875697
  C      3.596023   -1.100976    0.586351
  C      4.919476   -0.833725    0.882569
  C      5.562131    0.301815    0.454262
  C      4.817289    1.187999   -0.302350
  C      3.502621    0.937395   -0.606689
  C      2.846525   -0.211943   -0.174061
  S      0.197305    2.402998    0.062335
  C      0.566994    3.379824   -1.385110
  C     -4.035555   -1.671325   -0.180341
  O     -4.465631   -2.230948   -1.378117
  H     -3.199399    0.613012    3.450078
  H     -3.598938    0.941293    1.715485
  H     -4.695084   -0.104602    2.684739
  H     -1.981924   -2.067752   -0.492599
  H     -1.874052    1.903456   -1.516752
  H     -0.192052   -1.016633   -1.487270
  H      0.714288    0.398946   -1.973665
  H      0.697467   -2.582720    0.425793
  H      3.046412   -2.957403    1.441530
  H      5.458491   -1.545169    1.466867
  H      6.595041    0.534565    0.679434
  H      5.306674    2.092273   -0.646706
  H      2.938632    1.628477   -1.208091
  H      0.692593    4.448467   -1.026589
  H      1.451257    3.124220   -1.959926
  H     -0.323678    3.441292   -2.077736
  H     -4.683114   -0.833201    0.075933
  H     -4.113011   -2.449530    0.599872
  H     -5.417289   -2.428961   -1.302431

 Total Charge           Charge          ....    0
 Multiplicity           Mult            ....    1
 Number of Electrons    NEL             ....  184
 Basis Dimension        Dim             ....  435

ORBITAL ENERGIES
----------------

  NO   OCC          E(Eh)            E(eV)
   0   2.0000     -88.837997     -2417.4048
   1   2.0000     -19.191051      -522.2151
   2   2.0000     -19.124343      -520.3998
   3   2.0000     -19.107558      -519.9431
   4   2.0000     -19.103689      -519.8378
   5   2.0000     -14.409119      -392.0921
   6   2.0000     -14.379141      -391.2763
   7   2.0000     -14.353440      -390.5770
   8   2.0000     -10.299772      -280.2711
   9   2.0000     -10.296904      -280.1930
  10   2.0000     -10.270989      -279.4878
  11   2.0000     -10.247985      -278.8619
  12   2.0000     -10.242890      -278.7232
  13   2.0000     -10.242446      -278.7111
  14   2.0000     -10.226137      -278.2673
  15   2.0000     -10.216402      -278.0024
  16   2.0000     -10.206579      -277.7351
  17   2.0000     -10.202841      -277.6334
  18   2.0000     -10.175299      -276.8840
  19   2.0000     -10.170617      -276.7566
  20   2.0000     -10.168777      -276.7065
  21   2.0000     -10.167511      -276.6720
  22   2.0000     -10.165245      -276.6104
  23   2.0000     -10.161896      -276.5193
  24   2.0000      -7.934132      -215.8987
  25   2.0000      -5.903753      -160.6493
  26   2.0000      -5.899569      -160.5354
  27   2.0000      -5.892150      -160.3335
  28   2.0000      -1.127073       -30.6692
  29   2.0000      -1.023252       -27.8441
  30   2.0000      -1.010935       -27.5089
  31   2.0000      -1.001893       -27.2629
  32   2.0000      -0.991465       -26.9791
  33   2.0000      -0.935632       -25.4599
  34   2.0000      -0.887490       -24.1498
  35   2.0000      -0.837486       -22.7891
  36   2.0000      -0.814294       -22.1581
  37   2.0000      -0.789295       -21.4778
  38   2.0000      -0.768394       -20.9091
  39   2.0000      -0.753313       -20.4987
  40   2.0000      -0.730213       -19.8701
  41   2.0000      -0.714565       -19.4443
  42   2.0000      -0.703757       -19.1502
  43   2.0000      -0.680542       -18.5185
  44   2.0000      -0.644443       -17.5362
  45   2.0000      -0.628777       -17.1099
  46   2.0000      -0.623164       -16.9571
  47   2.0000      -0.597713       -16.2646
  48   2.0000      -0.587470       -15.9859
  49   2.0000      -0.573945       -15.6178
  50   2.0000      -0.570794       -15.5321
  51   2.0000      -0.548255       -14.9188
  52   2.0000      -0.538317       -14.6483
  53   2.0000      -0.533856       -14.5270
  54   2.0000      -0.519013       -14.1231
  55   2.0000      -0.495833       -13.4923
  56   2.0000      -0.494590       -13.4585
  57   2.0000      -0.484956       -13.1963
  58   2.0000      -0.479289       -13.0421
  59   2.0000      -0.467884       -12.7318
  60   2.0000      -0.461187       -12.5495
  61   2.0000      -0.452104       -12.3024
  62   2.0000      -0.444795       -12.1035
  63   2.0000      -0.438922       -11.9437
  64   2.0000      -0.436950       -11.8900
  65   2.0000      -0.430509       -11.7147
  66   2.0000      -0.427353       -11.6289
  67   2.0000      -0.417955       -11.3731
  68   2.0000      -0.414054       -11.2670
  69   2.0000      -0.410951       -11.1826
  70   2.0000      -0.409966       -11.1557
  71   2.0000      -0.405567       -11.0360
  72   2.0000      -0.392499       -10.6804
  73   2.0000      -0.377288       -10.2665
  74   2.0000      -0.370373       -10.0784
  75   2.0000      -0.366782        -9.9807
  76   2.0000      -0.360781        -9.8174
  77   2.0000      -0.345823        -9.4103
  78   2.0000      -0.338402        -9.2084
  79   2.0000      -0.333982        -9.0881
  80   2.0000      -0.326526        -8.8852
  81   2.0000      -0.306997        -8.3538
  82   2.0000      -0.302968        -8.2442
  83   2.0000      -0.280011        -7.6195
  84   2.0000      -0.279189        -7.5971
  85   2.0000      -0.273857        -7.4520
  86   2.0000      -0.252419        -6.8687
  87   2.0000      -0.249545        -6.7905
  88   2.0000      -0.237454        -6.4614
  89   2.0000      -0.227376        -6.1872
  90   2.0000      -0.223757        -6.0887
  91   2.0000      -0.195475        -5.3191
  92   0.0000      -0.022303        -0.6069
  93   0.0000      -0.014242        -0.3875
  94   0.0000      -0.011257        -0.3063
  95   0.0000       0.025046         0.6815
  96   0.0000       0.033441         0.9100

MULLIKEN ATOMIC CHARGES
-----------------------
   0 C :    0.154402
   1 O :   -0.254635
   2 N :   -0.157343
   3 C :    0.129606
   4 C :    0.072510
   5 O :   -0.226542
   6 N :   -0.145900
   7 C :   -0.233523
   8 C :    0.250569
   9 O :   -0.237905
  10 C :    0.202674
  11 C :   -0.085298
  12 C :    0.004544
  13 N :    0.001745
  14 C :    0.088799
  15 C :   -0.054120
  16 C :    0.017770
  17 C :    0.033641
  18 C :   -0.028966
  19 C :    0.107083
  20 S :   -0.000008
  21 C :   -0.091690
  22 C :    0.229695
  23 O :   -0.277291
  24 H :    0.044656
  25 H :    0.020797
  26 H :    0.026571
  27 H :    0.036023
  28 H :    0.131151
  29 H :    0.022084
  30 H :    0.005368
  31 H :   -0.010323
  32 H :    0.130607
  33 H :   -0.069684
  34 H :   -0.031969
  35 H :   -0.041795
  36 H :   -0.095840
  37 H :    0.077330
  38 H :    0.065667
  39 H :    0.040218
  40 H :   -0.025619
  41 H :    0.007151
  42 H :    0.167790
Sum of atomic charges:    0.0000000

LOEWDIN ATOMIC CHARGES
----------------------
   0 C :    0.044213
   1 O :   -0.073054
   2 N :    0.022908
   3 C :   -0.008828
   4 C :    0.083299
   5 O :   -0.199505
   6 N :   -0.046535
   7 C :   -0.130177
   8 C :    0.068438
   9 O :   -0.212325
  10 C :   -0.043981
  11 C :   -0.090862
  12 C :    0.001399
  13 N :    0.090833
  14 C :   -0.004516
  15 C :   -0.045151
  16 C :   -0.038266
  17 C :   -0.041110
  18 C :   -0.022155
  19 C :   -0.042675
  20 S :    0.297215
  21 C :   -0.183604
  22 C :    0.072111
  23 O :   -0.122568
  24 H :    0.023806
  25 H :    0.012428
  26 H :    0.015497
  27 H :    0.033376
  28 H :    0.074296
  29 H :    0.040552
  30 H :    0.040675
  31 H :    0.019530
  32 H :    0.103712
  33 H :    0.014723
  34 H :    0.024866
  35 H :    0.019708
  36 H :    0.012871
  37 H :    0.052865
  38 H :    0.014758
  39 H :    0.020372
  40 H :    0.003986
  41 H :    0.010934
  42 H :    0.085944

  Mayer bond orders larger than 0.100000
B(  0-C ,  1-O ) :   0.9512 B(  0-C , 24-H ) :   0.9727 B(  0-C , 25-H ) :   0.9664
B(  0-C , 26-H ) :   0.9664 B(  1-O ,  2-N ) :   0.9710 B(  2-N ,  3-C ) :   0.9104
B(  2-N ,  8-C ) :   1.1004 B(  3-C ,  4-C ) :   0.9084 B(  3-C , 22-C ) :   1.0831
B(  3-C , 27-H ) :   0.8748 B(  4-C ,  5-O ) :   2.1134 B(  4-C ,  6-N ) :   1.1358
B(  6-N ,  7-C ) :   0.9353 B(  6-N , 28-H ) :   0.9238 B(  7-C ,  8-C ) :   0.8728
B(  7-C , 10-C ) :   0.9773 B(  7-C , 20-S ) :   1.0420 B(  8-C ,  9-O ) :   2.1189
B( 10-C , 11-C ) :   1.0684 B( 10-C , 29-H ) :   0.8946 B( 10-C , 30-H ) :   0.8789
B( 11-C , 12-C ) :   1.4355 B( 11-C , 19-C ) :   1.3119 B( 12-C , 13-N ) :   1.2302
B( 12-C , 31-H ) :   0.9794 B( 13-N , 14-C ) :   1.1986 B( 13-N , 32-H ) :   0.9228
B( 14-C , 15-C ) :   1.2827 B( 14-C , 19-C ) :   1.2594 B( 15-C , 16-C ) :   1.3962
B( 15-C , 33-H ) :   1.0045 B( 16-C , 17-C ) :   1.3049 B( 16-C , 34-H ) :   0.9939
B( 17-C , 18-C ) :   1.4380 B( 17-C , 35-H ) :   0.9836 B( 18-C , 19-C ) :   1.2865
B( 18-C , 36-H ) :   0.9873 B( 20-S , 21-C ) :   1.0205 B( 21-C , 37-H ) :   0.9572
B( 21-C , 38-H ) :   0.9580 B( 21-C , 39-H ) :   0.9551 B( 22-C , 23-O ) :   1.1171
B( 22-C , 40-H ) :   0.9206 B( 22-C , 41-H ) :   0.9300 B( 23-O , 42-H ) :   0.9690

FINAL SINGLE POINT ENERGY     -1482.743780768064

DIPOLE MOMENT
-------------
                                X             Y             Z
Electronic contribution:      2.26976      -3.30613       2.12077
Nuclear contribution   :     -2.79069       2.88896      -1.95373
                        -----------------------------------------
Total Dipole Moment    :     -0.52093      -0.41717       0.16704
                        -----------------------------------------
Magnitude (a.u.)       :      0.68797
Magnitude (Debye)      :      1.74868

Rotational constants in cm-1:     0.013584     0.004794     0.004422
Rotational constants in MHz :   407.229322   143.714303   132.566957

                             ****ORCA TERMINATED NORMALLY****
TOTAL RUN TIME: 0 days 0 hours 15 minutes 49 seconds 84 msec
