                         Program Version 5.0.3 -  RELEASE  -
|  1> ! B3LYP DEF2-SVP TightSCF
|  2> %elprop
|  3> Polar 1
|  4> end
|  5> * xyzfile 0 1 _13.xyz
|  6>
|  7>                          ****END OF INPUT****

CARTESIAN COORDINATES (ANGSTROEM)
---------------------------------
  C      4.596123   -1.423324    0.407821
  C      3.263044   -0.788288    0.220204
  C      2.243113   -1.477797   -0.395554
  C      1.000813   -0.900828   -0.576349
  C      0.747986    0.370274   -0.149645
  C      1.761649    1.069217    0.467824
  C      3.018232    0.488651    0.651917
  C     -0.566695    1.028087   -0.322011
  C     -0.814794    1.131282   -1.827131
  C     -1.702709    0.204891    0.257623
  C     -2.974966    0.971675    0.022660
  C     -4.150294    0.224393    0.567773
  C     -3.978953   -0.937302    1.153772
  H      5.324016   -1.074433   -0.331721
  H      4.479354   -2.520988    0.250373
  H      4.916273   -1.240704    1.453193
  H      2.404138   -2.484078   -0.746360
  H      0.222960   -1.459294   -1.059067
  H      1.657287    2.079003    0.838853
  H      3.818558    1.029880    1.135162
  H     -0.564125    2.039094    0.085019
  H     -1.486416    1.976471   -2.046097
  H      0.176139    1.362258   -2.285960
  H     -1.195022    0.161958   -2.225175
  H     -1.509955    0.074819    1.328112
  H     -1.746320   -0.782894   -0.236564
  H     -2.878334    1.950490    0.518215
  H     -3.114469    1.151351   -1.061968
  H     -5.138740    0.655761    0.471159
  H     -4.809205   -1.497394    1.555711
  H     -2.998689   -1.382230    1.258562

 Total Charge           Charge          ....    0
 Multiplicity           Mult            ....    1
 Number of Electrons    NEL             ....   96
 Basis Dimension        Dim             ....  272

ORBITAL ENERGIES
----------------

  NO   OCC          E(Eh)            E(eV)
   0   2.0000     -10.179587      -277.0006
   1   2.0000     -10.178359      -276.9672
   2   2.0000     -10.177102      -276.9330
   3   2.0000     -10.176372      -276.9132
   4   2.0000     -10.175478      -276.8888
   5   2.0000     -10.174122      -276.8519
   6   2.0000     -10.173172      -276.8261
   7   2.0000     -10.172606      -276.8107
   8   2.0000     -10.172429      -276.8059
   9   2.0000     -10.172213      -276.8000
  10   2.0000     -10.171360      -276.7768
  11   2.0000     -10.170842      -276.7627
  12   2.0000     -10.164456      -276.5889
  13   2.0000      -0.859418       -23.3859
  14   2.0000      -0.822077       -22.3698
  15   2.0000      -0.785400       -21.3718
  16   2.0000      -0.746130       -20.3032
  17   2.0000      -0.732015       -19.9191
  18   2.0000      -0.694765       -18.9055
  19   2.0000      -0.668883       -18.2012
  20   2.0000      -0.636873       -17.3302
  21   2.0000      -0.607517       -16.5314
  22   2.0000      -0.585901       -15.9432
  23   2.0000      -0.555932       -15.1277
  24   2.0000      -0.527734       -14.3604
  25   2.0000      -0.498024       -13.5519
  26   2.0000      -0.483113       -13.1462
  27   2.0000      -0.457810       -12.4577
  28   2.0000      -0.457153       -12.4398
  29   2.0000      -0.444058       -12.0834
  30   2.0000      -0.430819       -11.7232
  31   2.0000      -0.422567       -11.4986
  32   2.0000      -0.418005       -11.3745
  33   2.0000      -0.411973       -11.2104
  34   2.0000      -0.403479       -10.9792
  35   2.0000      -0.386984       -10.5304
  36   2.0000      -0.376558       -10.2467
  37   2.0000      -0.361083        -9.8256
  38   2.0000      -0.352741        -9.5986
  39   2.0000      -0.351140        -9.5550
  40   2.0000      -0.343608        -9.3501
  41   2.0000      -0.338388        -9.2080
  42   2.0000      -0.326350        -8.8804
  43   2.0000      -0.318629        -8.6703
  44   2.0000      -0.306342        -8.3360
  45   2.0000      -0.256746        -6.9864
  46   2.0000      -0.247005        -6.7213
  47   2.0000      -0.232234        -6.3194
  48   0.0000      -0.001697        -0.0462
  49   0.0000       0.011218         0.3053
  50   0.0000       0.024379         0.6634
  51   0.0000       0.062364         1.6970
  52   0.0000       0.069494         1.8910

MULLIKEN ATOMIC CHARGES
-----------------------
   0 C :    0.087795
   1 C :   -0.029702
   2 C :   -0.003348
   3 C :   -0.014938
   4 C :    0.096264
   5 C :   -0.032833
   6 C :   -0.017211
   7 C :   -0.010442
   8 C :    0.024230
   9 C :   -0.006490
  10 C :    0.105118
  11 C :   -0.079314
  12 C :   -0.002979
  13 H :    0.028629
  14 H :    0.002710
  15 H :    0.021818
  16 H :   -0.051320
  17 H :   -0.052755
  18 H :   -0.048321
  19 H :   -0.052271
  20 H :   -0.031600
  21 H :    0.015868
  22 H :    0.011856
  23 H :    0.015051
  24 H :    0.007321
  25 H :    0.012088
  26 H :    0.001020
  27 H :    0.010363
  28 H :   -0.016049
  29 H :   -0.004788
  30 H :    0.014229
Sum of atomic charges:    0.0000000

LOEWDIN ATOMIC CHARGES
----------------------
   0 C :   -0.042796
   1 C :   -0.039263
   2 C :   -0.024203
   3 C :   -0.022600
   4 C :   -0.020706
   5 C :   -0.025726
   6 C :   -0.025548
   7 C :   -0.027328
   8 C :   -0.043001
   9 C :   -0.020389
  10 C :   -0.032062
  11 C :   -0.023246
  12 C :   -0.063044
  13 H :    0.032322
  14 H :    0.028370
  15 H :    0.032804
  16 H :    0.018581
  17 H :    0.017177
  18 H :    0.019250
  19 H :    0.018437
  20 H :    0.019659
  21 H :    0.019045
  22 H :    0.024875
  23 H :    0.022693
  24 H :    0.021469
  25 H :    0.020307
  26 H :    0.028965
  27 H :    0.031914
  28 H :    0.018427
  29 H :    0.015971
  30 H :    0.019645

  Mayer bond orders larger than 0.100000
B(  0-C ,  1-C ) :   1.0532 B(  0-C , 13-H ) :   0.9529 B(  0-C , 14-H ) :   0.9572
B(  0-C , 15-H ) :   0.9573 B(  1-C ,  2-C ) :   1.3825 B(  1-C ,  6-C ) :   1.4103
B(  2-C ,  3-C ) :   1.3687 B(  2-C , 16-H ) :   0.9894 B(  3-C ,  4-C ) :   1.3694
B(  3-C , 17-H ) :   0.9953 B(  4-C ,  5-C ) :   1.3736 B(  4-C ,  7-C ) :   1.0004
B(  5-C ,  6-C ) :   1.3556 B(  5-C , 18-H ) :   1.0009 B(  6-C , 19-H ) :   0.9921
B(  7-C ,  8-C ) :   1.0541 B(  7-C ,  9-C ) :   1.0445 B(  7-C , 20-H ) :   0.9075
B(  8-C , 21-H ) :   0.9564 B(  8-C , 22-H ) :   0.9609 B(  8-C , 23-H ) :   0.9596
B(  9-C , 10-C ) :   1.1307 B(  9-C , 24-H ) :   0.9308 B(  9-C , 25-H ) :   0.9159
B( 10-C , 11-C ) :   1.0196 B( 10-C , 26-H ) :   0.9112 B( 10-C , 27-H ) :   0.9086
B( 11-C , 12-C ) :   2.0173 B( 11-C , 28-H ) :   0.9689 B( 12-C , 29-H ) :   0.9505
B( 12-C , 30-H ) :   0.9295

FINAL SINGLE POINT ENERGY      -505.470368052835

DIPOLE MOMENT
-------------
                                X             Y             Z
Electronic contribution:      4.96359       0.05613       1.41249
Nuclear contribution   :     -4.89558       0.07831      -1.48068
                        -----------------------------------------
Total Dipole Moment    :      0.06802       0.13443      -0.06820
                        -----------------------------------------
Magnitude (a.u.)       :      0.16537
Magnitude (Debye)      :      0.42035

Rotational constants in cm-1:     0.064061     0.011644     0.010980
Rotational constants in MHz :  1920.490324   349.082173   329.157353

                             ****ORCA TERMINATED NORMALLY****
TOTAL RUN TIME: 0 days 0 hours 3 minutes 56 seconds 334 msec
