                         Program Version 5.0.3 -  RELEASE  -
|  1> ! B3LYP DEF2-SVP TightSCF
|  2> %elprop
|  3> Polar 1
|  4> end
|  5> * xyzfile 0 1 _29.xyz
|  6>
|  7>                          ****END OF INPUT****

CARTESIAN COORDINATES (ANGSTROEM)
---------------------------------
  C     -4.471461   -1.278556    0.625599
  C     -3.142050   -1.050907   -0.103164
  C     -3.452019   -1.153073   -1.579988
  C     -2.222224   -2.121604    0.341018
  C     -2.585296   -3.377901    0.168654
  C     -2.647777    0.291949    0.297928
  C     -1.434303    0.889343   -0.067584
  C     -1.341729    2.144036    0.510407
  C     -0.415362    3.183742    0.507675
  C     -0.605709    4.362431    1.188362
  C     -1.770390    4.514451    1.904763
  C     -2.706188    3.484887    1.916771
  C     -2.512116    2.299838    1.230464
  N     -3.258673    1.189408    1.083171
  C     -0.487105    0.277181   -0.956208
  C      0.779121    0.036051   -0.702630
  C      1.675467   -0.587410   -1.675796
  O      1.206324   -0.863172   -2.811483
  N      3.026068   -0.885258   -1.388440
  C      4.015917   -1.785524   -1.932451
  C      5.308156   -1.410524   -1.252024
  C      4.846737   -0.916008    0.101567
  C      3.610978   -0.123902   -0.277176
  C      2.666507    0.036228    0.829191
  O      3.051296   -0.100390    2.009212
  N      1.310658    0.346255    0.578851
  O      4.007979    1.127128   -0.749988
  O      4.497931   -2.050842    0.845487
  H     -4.315453   -1.295053    1.724460
  H     -4.926388   -2.217207    0.249586
  H     -5.170593   -0.444123    0.419022
  H     -3.726343   -0.151734   -1.971795
  H     -2.613527   -1.623949   -2.135501
  H     -4.370118   -1.788808   -1.738949
  H     -1.273713   -1.901584    0.796074
  H     -3.526254   -3.667683   -0.283304
  H     -1.949625   -4.221358    0.474803
  H      0.481703    3.030673   -0.060974
  H      0.106251    5.172704    1.192778
  H     -1.954495    5.442298    2.459728
  H     -3.625947    3.589409    2.473555
  H     -4.208432    1.036572    1.526850
  H     -0.836417   -0.023073   -1.943567
  H      3.766494   -2.821543   -1.566234
  H      4.102168   -1.742011   -3.029691
  H      5.967463   -2.308547   -1.092813
  H      5.882654   -0.645949   -1.811640
  H      5.592649   -0.295186    0.613375
  H      0.681761    0.772136    1.291680
  H      4.008734    1.723392    0.064532
  H      4.956691   -2.097234    1.705838

 Total Charge           Charge          ....    0
 Multiplicity           Mult            ....    1
 Number of Electrons    NEL             ....  202
 Basis Dimension        Dim             ....  507

ORBITAL ENERGIES
----------------

  NO   OCC          E(Eh)            E(eV)
   0   2.0000     -19.152325      -521.1613
   1   2.0000     -19.126492      -520.4583
   2   2.0000     -19.108265      -519.9623
   3   2.0000     -19.089097      -519.4407
   4   2.0000     -14.386598      -391.4792
   5   2.0000     -14.366316      -390.9273
   6   2.0000     -14.353231      -390.5713
   7   2.0000     -10.293102      -280.0895
   8   2.0000     -10.288938      -279.9762
   9   2.0000     -10.275041      -279.5981
  10   2.0000     -10.236485      -278.5489
  11   2.0000     -10.226790      -278.2851
  12   2.0000     -10.224630      -278.2263
  13   2.0000     -10.220660      -278.1183
  14   2.0000     -10.212732      -277.9026
  15   2.0000     -10.211969      -277.8818
  16   2.0000     -10.197842      -277.4974
  17   2.0000     -10.187944      -277.2281
  18   2.0000     -10.186100      -277.1779
  19   2.0000     -10.186095      -277.1777
  20   2.0000     -10.185785      -277.1693
  21   2.0000     -10.180850      -277.0350
  22   2.0000     -10.180346      -277.0213
  23   2.0000     -10.179131      -276.9882
  24   2.0000     -10.178654      -276.9752
  25   2.0000     -10.177033      -276.9312
  26   2.0000     -10.175162      -276.8802
  27   2.0000     -10.173605      -276.8379
  28   2.0000      -1.059615       -28.8336
  29   2.0000      -1.013601       -27.5815
  30   2.0000      -1.007695       -27.4208
  31   2.0000      -1.003313       -27.3015
  32   2.0000      -0.998996       -27.1841
  33   2.0000      -0.928807       -25.2741
  34   2.0000      -0.916322       -24.9344
  35   2.0000      -0.856808       -23.3149
  36   2.0000      -0.841251       -22.8916
  37   2.0000      -0.804873       -21.9017
  38   2.0000      -0.783019       -21.3070
  39   2.0000      -0.756771       -20.5928
  40   2.0000      -0.750771       -20.4295
  41   2.0000      -0.738127       -20.0855
  42   2.0000      -0.731136       -19.8952
  43   2.0000      -0.713412       -19.4129
  44   2.0000      -0.687173       -18.6989
  45   2.0000      -0.667799       -18.1717
  46   2.0000      -0.646790       -17.6001
  47   2.0000      -0.644511       -17.5380
  48   2.0000      -0.620883       -16.8951
  49   2.0000      -0.613842       -16.7035
  50   2.0000      -0.594286       -16.1713
  51   2.0000      -0.584515       -15.9055
  52   2.0000      -0.565732       -15.3944
  53   2.0000      -0.553489       -15.0612
  54   2.0000      -0.547932       -14.9100
  55   2.0000      -0.545399       -14.8411
  56   2.0000      -0.532532       -14.4909
  57   2.0000      -0.523597       -14.2478
  58   2.0000      -0.512370       -13.9423
  59   2.0000      -0.503066       -13.6891
  60   2.0000      -0.496901       -13.5214
  61   2.0000      -0.470374       -12.7995
  62   2.0000      -0.464605       -12.6425
  63   2.0000      -0.463323       -12.6077
  64   2.0000      -0.462058       -12.5732
  65   2.0000      -0.454431       -12.3657
  66   2.0000      -0.450506       -12.2589
  67   2.0000      -0.443602       -12.0710
  68   2.0000      -0.433633       -11.7997
  69   2.0000      -0.427072       -11.6212
  70   2.0000      -0.425597       -11.5811
  71   2.0000      -0.422765       -11.5040
  72   2.0000      -0.418026       -11.3751
  73   2.0000      -0.416138       -11.3237
  74   2.0000      -0.406689       -11.0666
  75   2.0000      -0.397515       -10.8169
  76   2.0000      -0.395168       -10.7531
  77   2.0000      -0.391765       -10.6605
  78   2.0000      -0.386965       -10.5299
  79   2.0000      -0.381809       -10.3896
  80   2.0000      -0.377137       -10.2624
  81   2.0000      -0.370434       -10.0800
  82   2.0000      -0.365436        -9.9440
  83   2.0000      -0.362980        -9.8772
  84   2.0000      -0.355091        -9.6625
  85   2.0000      -0.349122        -9.5001
  86   2.0000      -0.344534        -9.3752
  87   2.0000      -0.337135        -9.1739
  88   2.0000      -0.332798        -9.0559
  89   2.0000      -0.328457        -8.9378
  90   2.0000      -0.319381        -8.6908
  91   2.0000      -0.314641        -8.5618
  92   2.0000      -0.288122        -7.8402
  93   2.0000      -0.275650        -7.5008
  94   2.0000      -0.263319        -7.1653
  95   2.0000      -0.254071        -6.9136
  96   2.0000      -0.246482        -6.7071
  97   2.0000      -0.239080        -6.5057
  98   2.0000      -0.237893        -6.4734
  99   2.0000      -0.227461        -6.1895
 100   2.0000      -0.197268        -5.3679
 101   0.0000      -0.048092        -1.3086
 102   0.0000      -0.019358        -0.5268
 103   0.0000      -0.008478        -0.2307
 104   0.0000       0.005430         0.1478
 105   0.0000       0.022869         0.6223

MULLIKEN ATOMIC CHARGES
-----------------------
   0 C :    0.069389
   1 C :   -0.192626
   2 C :    0.100905
   3 C :    0.009801
   4 C :   -0.019156
   5 C :    0.008801
   6 C :   -0.009226
   7 C :    0.058038
   8 C :   -0.055444
   9 C :    0.046626
  10 C :    0.009609
  11 C :   -0.059324
  12 C :    0.074018
  13 N :    0.000413
  14 C :   -0.126226
  15 C :    0.078221
  16 C :    0.197773
  17 O :   -0.263409
  18 N :   -0.329828
  19 C :    0.231436
  20 C :    0.046970
  21 C :    0.104860
  22 C :    0.139525
  23 C :    0.095704
  24 O :   -0.244454
  25 N :   -0.121790
  26 O :   -0.245817
  27 O :   -0.288335
  28 H :    0.011737
  29 H :    0.019105
  30 H :   -0.004165
  31 H :    0.015879
  32 H :    0.047216
  33 H :    0.003361
  34 H :    0.003308
  35 H :    0.005486
  36 H :    0.021817
  37 H :   -0.047103
  38 H :   -0.032985
  39 H :   -0.022830
  40 H :   -0.062823
  41 H :    0.134791
  42 H :    0.011679
  43 H :    0.020352
  44 H :    0.025199
  45 H :    0.012481
  46 H :    0.010383
  47 H :   -0.014028
  48 H :    0.157230
  49 H :    0.185017
  50 H :    0.182441
Sum of atomic charges:    0.0000000

LOEWDIN ATOMIC CHARGES
----------------------
   0 C :   -0.028810
   1 C :   -0.067316
   2 C :   -0.027131
   3 C :   -0.003624
   4 C :   -0.044967
   5 C :    0.024379
   6 C :   -0.102980
   7 C :   -0.049578
   8 C :   -0.030560
   9 C :   -0.036898
  10 C :   -0.037938
  11 C :   -0.044937
  12 C :   -0.007025
  13 N :    0.086656
  14 C :   -0.014882
  15 C :   -0.023266
  16 C :    0.098567
  17 O :   -0.234503
  18 N :   -0.047893
  19 C :    0.057397
  20 C :   -0.041527
  21 C :    0.053927
  22 C :    0.021867
  23 C :    0.064178
  24 O :   -0.216851
  25 N :    0.000834
  26 O :   -0.115052
  27 O :   -0.125073
  28 H :    0.020285
  29 H :    0.027207
  30 H :    0.011779
  31 H :    0.029046
  32 H :    0.035742
  33 H :    0.027588
  34 H :    0.028363
  35 H :    0.015524
  36 H :    0.026136
  37 H :    0.019356
  38 H :    0.024649
  39 H :    0.026737
  40 H :    0.016913
  41 H :    0.106322
  42 H :    0.039719
  43 H :    0.030180
  44 H :    0.029286
  45 H :    0.034059
  46 H :    0.027487
  47 H :    0.011915
  48 H :    0.104965
  49 H :    0.106846
  50 H :    0.092900

  Mayer bond orders larger than 0.100000
B(  0-C ,  1-C ) :   1.0632 B(  0-C , 28-H ) :   0.9590 B(  0-C , 29-H ) :   0.9453
B(  0-C , 30-H ) :   0.9512 B(  1-C ,  2-C ) :   1.0503 B(  1-C ,  3-C ) :   0.9572
B(  1-C ,  5-C ) :   0.9684 B(  2-C , 31-H ) :   0.9548 B(  2-C , 32-H ) :   0.9536
B(  2-C , 33-H ) :   0.9512 B(  3-C ,  4-C ) :   1.9959 B(  3-C , 34-H ) :   0.9788
B(  4-C , 35-H ) :   0.9474 B(  4-C , 36-H ) :   0.9484 B(  5-C ,  6-C ) :   1.4686
B(  5-C , 13-N ) :   1.2576 B(  6-C ,  7-C ) :   1.2133 B(  6-C , 14-C ) :   0.9497
B(  7-C ,  8-C ) :   1.2912 B(  7-C , 12-C ) :   1.2674 B(  8-C ,  9-C ) :   1.3915
B(  8-C , 37-H ) :   0.9923 B(  9-C , 10-C ) :   1.3211 B(  9-C , 38-H ) :   0.9936
B( 10-C , 11-C ) :   1.3911 B( 10-C , 39-H ) :   0.9854 B( 11-C , 12-C ) :   1.3088
B( 11-C , 40-H ) :   0.9975 B( 12-C , 13-N ) :   1.1763 B( 13-N , 41-H ) :   0.9043
B( 14-C , 15-C ) :   1.8245 B( 14-C , 42-H ) :   0.9346 B( 15-C , 16-C ) :   0.9366
B( 15-C , 25-N ) :   1.0721 B( 16-C , 17-O ) :   2.0693 B( 16-C , 18-N ) :   1.0883
B( 18-N , 19-C ) :   0.9465 B( 18-N , 22-C ) :   0.9753 B( 19-C , 20-C ) :   1.0944
B( 19-C , 43-H ) :   0.9339 B( 19-C , 44-H ) :   0.9361 B( 20-C , 21-C ) :   1.0630
B( 20-C , 45-H ) :   0.9303 B( 20-C , 46-H ) :   0.9171 B( 21-C , 22-C ) :   0.9370
B( 21-C , 27-O ) :   1.1074 B( 21-C , 47-H ) :   0.9268 B( 22-C , 23-C ) :   0.9039
B( 22-C , 26-O ) :   1.0916 B( 23-C , 24-O ) :   2.1000 B( 23-C , 25-N ) :   1.1625
B( 25-N , 48-H ) :   0.8800 B( 26-O , 49-H ) :   0.9496 B( 27-O , 50-H ) :   0.9616

FINAL SINGLE POINT ENERGY     -1277.482803661474

DIPOLE MOMENT
-------------
                                X             Y             Z
Electronic contribution:     12.93750       9.86526       2.03281
Nuclear contribution   :    -13.67978      -9.79443      -0.88355
                        -----------------------------------------
Total Dipole Moment    :     -0.74228       0.07083       1.14925
                        -----------------------------------------
Magnitude (a.u.)       :      1.36996
Magnitude (Debye)      :      3.48215

Rotational constants in cm-1:     0.009118     0.004164     0.003307
Rotational constants in MHz :   273.336392   124.824244    99.127989

                             ****ORCA TERMINATED NORMALLY****
TOTAL RUN TIME: 0 days 0 hours 25 minutes 47 seconds 497 msec
