                         Program Version 5.0.3 -  RELEASE  -
|  1> ! B3LYP DEF2-SVP TightSCF
|  2> %elprop
|  3> Polar 1
|  4> end
|  5> * xyzfile 0 1 _6.xyz
|  6>
|  7>                          ****END OF INPUT****

CARTESIAN COORDINATES (ANGSTROEM)
---------------------------------
  C     -3.510783   -0.040723    0.035742
  C     -2.140999    0.463561    0.529781
  C     -2.420431    1.871853    1.046520
  N     -1.183807    0.544246   -0.533626
  C     -0.807251   -0.667939   -1.172447
  C      0.049944   -1.592054   -0.320058
  C      1.382755   -0.960326   -0.086912
  C      1.496804    0.058651    0.836055
  C      2.711621    0.690896    1.092378
  C      3.818012    0.290484    0.412252
  C      3.749420   -0.719146   -0.513160
  C      2.526080   -1.326264   -0.743918
  O      2.756726    1.695631    2.018199
  O     -0.557837   -1.997185    0.839443
  Cl     0.684503    0.000000    0.000000
  H     -3.653485    0.307681   -1.023874
  H     -3.597476   -1.135301    0.098340
  H     -4.340764    0.433547    0.630511
  H     -1.749348   -0.138023    1.359770
  H     -3.367707    2.273217    0.650388
  H     -1.600794    2.534543    0.683349
  H     -2.427676    1.920349    2.139074
  H     -1.540758    1.204332   -1.257019
  H     -1.712413   -1.188772   -1.542067
  H     -0.182965   -0.484440   -2.087658
  H      0.225373   -2.507662   -0.951423
  H      0.614319    0.374064    1.377537
  H      4.783958    0.772940    0.595197
  H      4.645893   -1.014500   -1.036197
  H      2.443096   -2.122665   -1.466450
  H      3.541961    2.238834    2.308353
  H      0.048534   -1.779826    1.606964
  H     -0.684503    0.000000    0.000000

 Total Charge           Charge          ....    0
 Multiplicity           Mult            ....    1
 Number of Electrons    NEL             ....  124
 Basis Dimension        Dim             ....  304

ORBITAL ENERGIES
----------------

  NO   OCC          E(Eh)            E(eV)
   0   2.0000    -101.602346     -2764.7404
   1   2.0000     -19.154317      -521.2155
   2   2.0000     -19.126557      -520.4601
   3   2.0000     -14.382105      -391.3570
   4   2.0000     -10.306243      -280.4471
   5   2.0000     -10.264425      -279.3092
   6   2.0000     -10.242333      -278.7081
   7   2.0000     -10.240260      -278.6516
   8   2.0000     -10.235091      -278.5110
   9   2.0000     -10.207590      -277.7627
  10   2.0000     -10.199678      -277.5473
  11   2.0000     -10.190538      -277.2986
  12   2.0000     -10.144656      -276.0501
  13   2.0000     -10.135083      -275.7896
  14   2.0000     -10.134772      -275.7812
  15   2.0000      -9.605781      -261.3866
  16   2.0000      -7.368928      -200.5187
  17   2.0000      -7.364518      -200.3987
  18   2.0000      -7.352136      -200.0618
  19   2.0000      -1.369329       -37.2613
  20   2.0000      -1.128734       -30.7144
  21   2.0000      -1.054764       -28.7016
  22   2.0000      -1.000721       -27.2310
  23   2.0000      -0.940832       -25.6013
  24   2.0000      -0.861585       -23.4449
  25   2.0000      -0.815457       -22.1897
  26   2.0000      -0.770551       -20.9678
  27   2.0000      -0.738726       -20.1018
  28   2.0000      -0.709726       -19.3126
  29   2.0000      -0.699160       -19.0251
  30   2.0000      -0.691530       -18.8175
  31   2.0000      -0.672981       -18.3127
  32   2.0000      -0.669406       -18.2155
  33   2.0000      -0.636242       -17.3130
  34   2.0000      -0.594932       -16.1889
  35   2.0000      -0.567637       -15.4462
  36   2.0000      -0.543128       -14.7793
  37   2.0000      -0.518560       -14.1107
  38   2.0000      -0.516015       -14.0415
  39   2.0000      -0.511083       -13.9073
  40   2.0000      -0.471136       -12.8203
  41   2.0000      -0.469090       -12.7646
  42   2.0000      -0.459250       -12.4968
  43   2.0000      -0.439771       -11.9668
  44   2.0000      -0.429228       -11.6799
  45   2.0000      -0.420129       -11.4323
  46   2.0000      -0.410026       -11.1574
  47   2.0000      -0.406203       -11.0534
  48   2.0000      -0.396244       -10.7823
  49   2.0000      -0.378741       -10.3061
  50   2.0000      -0.377241       -10.2653
  51   2.0000      -0.368924       -10.0389
  52   2.0000      -0.354802        -9.6547
  53   2.0000      -0.345882        -9.4119
  54   2.0000      -0.335643        -9.1333
  55   2.0000      -0.311229        -8.4690
  56   2.0000      -0.306738        -8.3468
  57   2.0000      -0.289780        -7.8853
  58   2.0000      -0.268800        -7.3144
  59   2.0000      -0.224728        -6.1152
  60   2.0000      -0.167221        -4.5503
  61   2.0000      -0.046122        -1.2551
  62   0.0000      -0.005415        -0.1473
  63   0.0000       0.006538         0.1779
  64   0.0000       0.029696         0.8081
  65   0.0000       0.034137         0.9289
  66   0.0000       0.053353         1.4518

MULLIKEN ATOMIC CHARGES
-----------------------
   0 C :    0.029812
   1 C :   -0.028382
   2 C :    0.071293
   3 N :    0.083802
   4 C :    0.084110
   5 C :    0.250227
   6 C :   -0.264137
   7 C :   -0.132260
   8 C :    0.162020
   9 C :   -0.125133
  10 C :    0.033016
  11 C :   -0.189776
  12 O :   -0.259941
  13 O :   -0.219277
  14 Cl:    0.900501
  15 H :    0.008212
  16 H :    0.022538
  17 H :    0.028123
  18 H :    0.026224
  19 H :    0.009984
  20 H :   -0.015831
  21 H :    0.020897
  22 H :   -0.026157
  23 H :    0.058105
  24 H :   -0.092240
  25 H :   -0.006207
  26 H :   -0.431418
  27 H :   -0.071859
  28 H :   -0.052538
  29 H :   -0.074517
  30 H :    0.198526
  31 H :    0.131281
  32 H :   -0.128996
Sum of atomic charges:   -0.0000000

LOEWDIN ATOMIC CHARGES
----------------------
   0 C :   -0.063371
   1 C :    0.012776
   2 C :   -0.053941
   3 N :    0.154330
   4 C :    0.013237
   5 C :    0.050651
   6 C :   -0.340263
   7 C :   -0.305759
   8 C :   -0.039539
   9 C :   -0.127010
  10 C :   -0.052667
  11 C :   -0.187016
  12 O :   -0.107417
  13 O :   -0.115401
  14 Cl:    1.247143
  15 H :    0.020932
  16 H :    0.019511
  17 H :    0.034210
  18 H :    0.009451
  19 H :    0.024088
  20 H :    0.011071
  21 H :    0.030453
  22 H :   -0.017683
  23 H :    0.042343
  24 H :   -0.027006
  25 H :    0.015856
  26 H :   -0.179574
  27 H :    0.014706
  28 H :    0.018957
  29 H :    0.008231
  30 H :    0.116826
  31 H :    0.040280
  32 H :   -0.268404

  Mayer bond orders larger than 0.100000
B(  0-C ,  1-C ) :   1.0618 B(  0-C , 15-H ) :   0.9480 B(  0-C , 16-H ) :   0.9541
B(  0-C , 17-H ) :   0.9590 B(  1-C ,  2-C ) :   1.0657 B(  1-C ,  3-N ) :   0.8931
B(  1-C , 18-H ) :   0.8472 B(  2-C , 19-H ) :   0.9574 B(  2-C , 20-H ) :   0.9373
B(  2-C , 21-H ) :   0.9529 B(  3-N ,  4-C ) :   0.9477 B(  3-N , 22-H ) :   0.6932
B(  3-N , 32-H ) :   0.5886 B(  4-C ,  5-C ) :   0.9752 B(  4-C , 14-Cl) :   0.1983
B(  4-C , 23-H ) :   0.8992 B(  4-C , 24-H ) :   0.7355 B(  5-C ,  6-C ) :   0.6988
B(  5-C , 13-O ) :   1.1252 B(  5-C , 14-Cl) :   0.1585 B(  5-C , 25-H ) :   0.8695
B(  6-C ,  7-C ) :   0.8579 B(  6-C , 11-C ) :   1.1492 B(  6-C , 14-Cl) :   1.0915
B(  6-C , 26-H ) :   0.1393 B(  7-C ,  8-C ) :   1.0351 B(  7-C , 14-Cl) :   1.3400
B(  7-C , 26-H ) :   0.4000 B(  8-C ,  9-C ) :   1.3350 B(  8-C , 12-O ) :   1.1452
B(  9-C , 10-C ) :   1.2932 B(  9-C , 27-H ) :   0.9917 B( 10-C , 11-C ) :   1.3456
B( 10-C , 28-H ) :   0.9885 B( 11-C , 29-H ) :   0.9988 B( 12-O , 30-H ) :   0.9254
B( 13-O , 31-H ) :   0.8774 B( 14-Cl, 32-H ) :   0.2930 B( 22-H , 26-H ) :   0.1075
B( 26-H , 32-H ) :   0.1325

FINAL SINGLE POINT ENERGY     -1092.396624015493

DIPOLE MOMENT
-------------
                                X             Y             Z
Electronic contribution:     15.40132      -2.44012       1.33421
Nuclear contribution   :    -16.75698       2.83930      -1.61892
                        -----------------------------------------
Total Dipole Moment    :     -1.35565       0.39918      -0.28471
                        -----------------------------------------
Magnitude (a.u.)       :      1.44160
Magnitude (Debye)      :      3.66425

Rotational constants in cm-1:     0.037945     0.014321     0.011714
Rotational constants in MHz :  1137.558529   429.328264   351.163003

                             ****ORCA TERMINATED NORMALLY****
TOTAL RUN TIME: 0 days 0 hours 8 minutes 16 seconds 170 msec
