                         Program Version 5.0.3 -  RELEASE  -
|  1> ! B3LYP DEF2-SVP TightSCF
|  2> %elprop
|  3> Polar 1
|  4> end
|  5> * xyzfile 0 1 _1.xyz
|  6>
|  7>                          ****END OF INPUT****

CARTESIAN COORDINATES (ANGSTROEM)
---------------------------------
  C     -1.740752    1.267231   -0.182936
  O     -1.076600    0.852513    0.959397
  P     -0.162604   -0.539125    0.722919
  O      0.757045   -0.682554    1.933987
  N     -1.170323   -1.983886    0.701294
  S      0.995145   -0.418890   -1.049931
  C      2.639329    0.231036   -0.693747
  H     -1.345513    2.249905   -0.516365
  H     -2.822955    1.425438    0.011003
  H     -1.688971    0.519933   -1.008609
  H     -1.390652   -2.189485   -0.294886
  H     -2.020682   -1.795409    1.281467
  H      2.678221    0.765470    0.270839
  H      2.978824    0.901625   -1.499122
  H      3.370488   -0.603802   -0.635310

 Total Charge           Charge          ....    0
 Multiplicity           Mult            ....    1
 Number of Electrons    NEL             ....   74
 Basis Dimension        Dim             ....  146

ORBITAL ENERGIES
----------------

  NO   OCC          E(Eh)            E(eV)
   0   2.0000     -88.855527     -2417.8818
   1   2.0000     -77.185115     -2100.3138
   2   2.0000     -19.165283      -521.5139
   3   2.0000     -19.058276      -518.6021
   4   2.0000     -14.357311      -390.6823
   5   2.0000     -10.252563      -278.9864
   6   2.0000     -10.228802      -278.3399
   7   2.0000      -7.952573      -216.4005
   8   2.0000      -6.663865      -181.3330
   9   2.0000      -5.921719      -161.1382
  10   2.0000      -5.917554      -161.0248
  11   2.0000      -5.911681      -160.8650
  12   2.0000      -4.831215      -131.4640
  13   2.0000      -4.829975      -131.4303
  14   2.0000      -4.828889      -131.4008
  15   2.0000      -1.051532       -28.6136
  16   2.0000      -0.923791       -25.1376
  17   2.0000      -0.866678       -23.5835
  18   2.0000      -0.791892       -21.5485
  19   2.0000      -0.695786       -18.9333
  20   2.0000      -0.666041       -18.1239
  21   2.0000      -0.571342       -15.5470
  22   2.0000      -0.523137       -14.2353
  23   2.0000      -0.498167       -13.5558
  24   2.0000      -0.474629       -12.9153
  25   2.0000      -0.472038       -12.8448
  26   2.0000      -0.448869       -12.2143
  27   2.0000      -0.431887       -11.7523
  28   2.0000      -0.415559       -11.3079
  29   2.0000      -0.375731       -10.2242
  30   2.0000      -0.356767        -9.7081
  31   2.0000      -0.324717        -8.8360
  32   2.0000      -0.317374        -8.6362
  33   2.0000      -0.299967        -8.1625
  34   2.0000      -0.268257        -7.2996
  35   2.0000      -0.249453        -6.7880
  36   2.0000      -0.244209        -6.6453
  37   0.0000      -0.037894        -1.0312
  38   0.0000       0.020611         0.5608
  39   0.0000       0.040024         1.0891
  40   0.0000       0.064886         1.7656
  41   0.0000       0.077362         2.1051

MULLIKEN ATOMIC CHARGES
-----------------------
   0 C :    0.171522
   1 O :   -0.431513
   2 P :    0.775973
   3 O :   -0.504361
   4 N :   -0.301068
   5 S :   -0.213278
   6 C :   -0.068548
   7 H :    0.034828
   8 H :    0.020668
   9 H :   -0.002650
  10 H :    0.132498
  11 H :    0.152498
  12 H :    0.085847
  13 H :    0.069237
  14 H :    0.078346
Sum of atomic charges:   -0.0000000

LOEWDIN ATOMIC CHARGES
----------------------
   0 C :    0.035668
   1 O :   -0.277702
   2 P :    0.801799
   3 O :   -0.528828
   4 N :   -0.230439
   5 S :    0.058383
   6 C :   -0.151273
   7 H :    0.019793
   8 H :    0.014473
   9 H :   -0.008765
  10 H :    0.066642
  11 H :    0.085057
  12 H :    0.042755
  13 H :    0.035735
  14 H :    0.036701

  Mayer bond orders larger than 0.100000
B(  0-C ,  1-O ) :   0.9668 B(  0-C ,  7-H ) :   0.9760 B(  0-C ,  8-H ) :   0.9688
B(  0-C ,  9-H ) :   0.9473 B(  1-O ,  2-P ) :   0.9495 B(  2-P ,  3-O ) :   1.8730
B(  2-P ,  4-N ) :   1.0529 B(  2-P ,  5-S ) :   0.9629 B(  4-N , 10-H ) :   0.9415
B(  4-N , 11-H ) :   0.9398 B(  5-S ,  6-C ) :   0.9870 B(  6-C , 12-H ) :   0.9623
B(  6-C , 13-H ) :   0.9686 B(  6-C , 14-H ) :   0.9704

FINAL SINGLE POINT ENERGY     -1025.093404810844

DIPOLE MOMENT
-------------
                                X             Y             Z
Electronic contribution:     -0.01103      -3.01749       2.70647
Nuclear contribution   :     -0.86722       3.36473      -4.30823
                        -----------------------------------------
Total Dipole Moment    :     -0.87825       0.34723      -1.60177
                        -----------------------------------------
Magnitude (a.u.)       :      1.85945
Magnitude (Debye)      :      4.72634

Rotational constants in cm-1:     0.076446     0.047114     0.040205
Rotational constants in MHz :  2291.802611  1412.436688  1205.313445

                             ****ORCA TERMINATED NORMALLY****
TOTAL RUN TIME: 0 days 0 hours 0 minutes 37 seconds 962 msec
