                         Program Version 5.0.3 -  RELEASE  -
|  1> ! B3LYP DEF2-SVP TightSCF
|  2> %elprop
|  3> Polar 1
|  4> end
|  5> * xyzfile 0 1 _12.xyz
|  6>
|  7>                          ****END OF INPUT****

CARTESIAN COORDINATES (ANGSTROEM)
---------------------------------
  C     -2.779160    0.695735    0.427051
  C     -1.821136   -0.062930   -0.467302
  C     -2.399606   -1.409550   -0.733299
  C     -0.425788   -0.117646    0.106022
  C      0.445774   -0.885870   -0.846890
  C      1.886451   -0.943019   -0.388040
  C      2.350967    0.513388   -0.269468
  C      1.534025    1.110399    0.867704
  C      0.127013    1.272123    0.329061
  O     -0.606733    1.949929    1.284506
  O      3.705482    0.607407   -0.063085
  O      2.657948   -1.549476   -1.353076
  H     -2.714267    1.795936    0.284739
  H     -2.621614    0.408955    1.480094
  H     -3.808940    0.383876    0.152770
  H     -1.773882    0.494524   -1.426156
  H     -2.110202   -1.835044   -1.713424
  H     -2.149547   -2.110850    0.092201
  H     -3.506774   -1.310536   -0.744984
  H     -0.467844   -0.645478    1.064127
  H      0.070719   -1.921383   -0.900077
  H      0.441858   -0.364519   -1.820800
  H      1.992779   -1.398899    0.619527
  H      2.077711    1.029798   -1.236115
  H      1.960459    2.037351    1.248495
  H      1.469604    0.323157    1.666004
  H      0.149385    1.808304   -0.659558
  H     -0.487225    2.917815    1.118411
  H      4.111134   -0.284462   -0.122973
  H      2.691407   -2.509034   -1.183940

 Total Charge           Charge          ....    0
 Multiplicity           Mult            ....    1
 Number of Electrons    NEL             ....   96
 Basis Dimension        Dim             ....  258

ORBITAL ENERGIES
----------------

  NO   OCC          E(Eh)            E(eV)
   0   2.0000     -19.139893      -520.8230
   1   2.0000     -19.124404      -520.4015
   2   2.0000     -19.111474      -520.0497
   3   2.0000     -10.227046      -278.2921
   4   2.0000     -10.223480      -278.1950
   5   2.0000     -10.216640      -278.0089
   6   2.0000     -10.174014      -276.8490
   7   2.0000     -10.173438      -276.8333
   8   2.0000     -10.170979      -276.7664
   9   2.0000     -10.169211      -276.7183
  10   2.0000     -10.165027      -276.6044
  11   2.0000     -10.156391      -276.3695
  12   2.0000      -1.035571       -28.1793
  13   2.0000      -1.014771       -27.6133
  14   2.0000      -0.996141       -27.1064
  15   2.0000      -0.838544       -22.8179
  16   2.0000      -0.785866       -21.3845
  17   2.0000      -0.724093       -19.7036
  18   2.0000      -0.706282       -19.2189
  19   2.0000      -0.662116       -18.0171
  20   2.0000      -0.608853       -16.5677
  21   2.0000      -0.601260       -16.3611
  22   2.0000      -0.577434       -15.7128
  23   2.0000      -0.553625       -15.0649
  24   2.0000      -0.530287       -14.4298
  25   2.0000      -0.522345       -14.2137
  26   2.0000      -0.494594       -13.4586
  27   2.0000      -0.466590       -12.6966
  28   2.0000      -0.457999       -12.4628
  29   2.0000      -0.443572       -12.0702
  30   2.0000      -0.429886       -11.6978
  31   2.0000      -0.409577       -11.1452
  32   2.0000      -0.401369       -10.9218
  33   2.0000      -0.394658       -10.7392
  34   2.0000      -0.387609       -10.5474
  35   2.0000      -0.378758       -10.3065
  36   2.0000      -0.366057        -9.9609
  37   2.0000      -0.363732        -9.8976
  38   2.0000      -0.352951        -9.6043
  39   2.0000      -0.342864        -9.3298
  40   2.0000      -0.336708        -9.1623
  41   2.0000      -0.321204        -8.7404
  42   2.0000      -0.314107        -8.5473
  43   2.0000      -0.304702        -8.2914
  44   2.0000      -0.295903        -8.0519
  45   2.0000      -0.268244        -7.2993
  46   2.0000      -0.265034        -7.2120
  47   2.0000      -0.240711        -6.5501
  48   0.0000       0.029787         0.8105
  49   0.0000       0.046905         1.2764
  50   0.0000       0.058112         1.5813
  51   0.0000       0.064865         1.7651
  52   0.0000       0.092404         2.5144

MULLIKEN ATOMIC CHARGES
-----------------------
   0 C :    0.126851
   1 C :   -0.127719
   2 C :    0.069374
   3 C :   -0.078234
   4 C :    0.130951
   5 C :    0.090184
   6 C :    0.089482
   7 C :    0.172452
   8 C :    0.108335
   9 O :   -0.278894
  10 O :   -0.264214
  11 O :   -0.274453
  12 H :   -0.007644
  13 H :   -0.004117
  14 H :   -0.022409
  15 H :   -0.028708
  16 H :    0.011516
  17 H :   -0.002897
  18 H :   -0.003450
  19 H :   -0.030673
  20 H :   -0.018159
  21 H :   -0.013555
  22 H :   -0.036109
  23 H :   -0.034834
  24 H :   -0.018015
  25 H :   -0.027911
  26 H :   -0.031478
  27 H :    0.174239
  28 H :    0.159879
  29 H :    0.170208
Sum of atomic charges:   -0.0000000

LOEWDIN ATOMIC CHARGES
----------------------
   0 C :   -0.046914
   1 C :   -0.042422
   2 C :   -0.049624
   3 C :   -0.036288
   4 C :   -0.027538
   5 C :    0.021699
   6 C :    0.032784
   7 C :   -0.040776
   8 C :    0.048345
   9 O :   -0.105721
  10 O :   -0.121893
  11 O :   -0.107186
  12 H :    0.014472
  13 H :    0.019717
  14 H :    0.008549
  15 H :    0.015900
  16 H :    0.020101
  17 H :    0.019788
  18 H :    0.022008
  19 H :    0.017578
  20 H :    0.018749
  21 H :    0.024595
  22 H :   -0.000239
  23 H :    0.001849
  24 H :    0.015961
  25 H :    0.020522
  26 H :    0.001780
  27 H :    0.091626
  28 H :    0.076494
  29 H :    0.086084

  Mayer bond orders larger than 0.100000
B(  0-C ,  1-C ) :   1.1059 B(  0-C , 12-H ) :   0.9477 B(  0-C , 13-H ) :   0.9537
B(  0-C , 14-H ) :   0.9500 B(  1-C ,  2-C ) :   1.0894 B(  1-C ,  3-C ) :   1.0364
B(  1-C , 15-H ) :   0.9060 B(  2-C , 16-H ) :   0.9546 B(  2-C , 17-H ) :   0.9548
B(  2-C , 18-H ) :   0.9544 B(  3-C ,  4-C ) :   1.0673 B(  3-C ,  8-C ) :   1.0185
B(  3-C , 19-H ) :   0.8692 B(  4-C ,  5-C ) :   1.0581 B(  4-C , 20-H ) :   0.9098
B(  4-C , 21-H ) :   0.8967 B(  5-C ,  6-C ) :   1.0233 B(  5-C , 11-O ) :   1.0644
B(  5-C , 22-H ) :   0.9027 B(  6-C ,  7-C ) :   1.0112 B(  6-C , 10-O ) :   1.1378
B(  6-C , 23-H ) :   0.8915 B(  7-C ,  8-C ) :   1.0367 B(  7-C , 24-H ) :   0.9246
B(  7-C , 25-H ) :   0.8852 B(  8-C ,  9-O ) :   1.0501 B(  8-C , 26-H ) :   0.9102
B(  9-O , 27-H ) :   0.9655 B( 10-O , 28-H ) :   0.9600 B( 11-O , 29-H ) :   0.9723

FINAL SINGLE POINT ENERGY      -578.646724354376

DIPOLE MOMENT
-------------
                                X             Y             Z
Electronic contribution:     11.40060       2.15261       0.33992
Nuclear contribution   :    -11.53072      -2.74536      -0.40817
                        -----------------------------------------
Total Dipole Moment    :     -0.13012      -0.59275      -0.06825
                        -----------------------------------------
Magnitude (a.u.)       :      0.61069
Magnitude (Debye)      :      1.55225

Rotational constants in cm-1:     0.050044     0.021705     0.015865
Rotational constants in MHz :  1500.294699   650.701674   475.606793

                             ****ORCA TERMINATED NORMALLY****
TOTAL RUN TIME: 0 days 0 hours 5 minutes 11 seconds 825 msec
