                         Program Version 5.0.3 -  RELEASE  -
|  1> ! B3LYP DEF2-SVP TightSCF
|  2> %elprop
|  3> Polar 1
|  4> end
|  5> * xyzfile 0 1 _9.xyz
|  6>
|  7>                          ****END OF INPUT****

CARTESIAN COORDINATES (ANGSTROEM)
---------------------------------
  C     -3.229538   -0.419439    0.729266
  C     -1.749863   -0.328914    0.466796
  C     -1.218723   -1.531241   -0.220106
  C     -0.047304   -1.421005   -0.831439
  C      0.742568   -0.166180   -0.857418
  C     -0.096814    1.064595   -0.819043
  C     -1.526002    0.847706   -0.458082
  O     -2.102605    1.958693    0.134663
  C      1.714417   -0.096196    0.315405
  C      2.694956   -1.240715    0.302086
  C      2.442509    1.235885    0.191247
  H     -3.494436   -1.276284    1.380754
  H     -3.511193    0.503867    1.288720
  H     -3.807200   -0.401636   -0.213275
  H     -1.224442   -0.212339    1.429091
  H     -1.775124   -2.457809   -0.215762
  H      0.340364   -2.304339   -1.334758
  H      1.370736   -0.138117   -1.776223
  H     -0.086958    1.594962   -1.815859
  H      0.313063    1.837498   -0.106283
  H     -2.136638    0.631490   -1.382151
  H     -1.674619    2.182008    0.987957
  H      1.178023   -0.113529    1.273076
  H      3.730402   -0.824156    0.472836
  H      2.691486   -1.784560   -0.656535
  H      2.528961   -1.916867    1.183253
  H      2.130054    1.946189    0.985595
  H      3.547514    1.102818    0.324999
  H      2.256407    1.727616   -0.778809

 Total Charge           Charge          ....    0
 Multiplicity           Mult            ....    1
 Number of Electrons    NEL             ....   86
 Basis Dimension        Dim             ....  244

ORBITAL ENERGIES
----------------

  NO   OCC          E(Eh)            E(eV)
   0   2.0000     -19.117480      -520.2131
   1   2.0000     -10.219519      -278.0873
   2   2.0000     -10.182616      -277.0831
   3   2.0000     -10.182140      -277.0701
   4   2.0000     -10.174709      -276.8679
   5   2.0000     -10.174538      -276.8632
   6   2.0000     -10.173917      -276.8464
   7   2.0000     -10.171738      -276.7871
   8   2.0000     -10.170634      -276.7570
   9   2.0000     -10.168723      -276.7050
  10   2.0000     -10.165951      -276.6296
  11   2.0000      -1.009346       -27.4657
  12   2.0000      -0.848708       -23.0945
  13   2.0000      -0.798579       -21.7304
  14   2.0000      -0.742377       -20.2011
  15   2.0000      -0.727192       -19.7879
  16   2.0000      -0.672098       -18.2887
  17   2.0000      -0.663195       -18.0465
  18   2.0000      -0.599634       -16.3169
  19   2.0000      -0.596882       -16.2420
  20   2.0000      -0.559523       -15.2254
  21   2.0000      -0.529824       -14.4173
  22   2.0000      -0.498388       -13.5618
  23   2.0000      -0.467080       -12.7099
  24   2.0000      -0.464107       -12.6290
  25   2.0000      -0.451746       -12.2926
  26   2.0000      -0.445270       -12.1164
  27   2.0000      -0.427496       -11.6328
  28   2.0000      -0.408922       -11.1273
  29   2.0000      -0.397872       -10.8266
  30   2.0000      -0.389994       -10.6123
  31   2.0000      -0.385402       -10.4873
  32   2.0000      -0.362428        -9.8622
  33   2.0000      -0.358622        -9.7586
  34   2.0000      -0.345612        -9.4046
  35   2.0000      -0.341889        -9.3033
  36   2.0000      -0.337593        -9.1864
  37   2.0000      -0.327597        -8.9144
  38   2.0000      -0.317903        -8.6506
  39   2.0000      -0.304578        -8.2880
  40   2.0000      -0.292485        -7.9589
  41   2.0000      -0.259897        -7.0722
  42   2.0000      -0.239448        -6.5157
  43   0.0000       0.015083         0.4104
  44   0.0000       0.041029         1.1165
  45   0.0000       0.054786         1.4908
  46   0.0000       0.071384         1.9425
  47   0.0000       0.082329         2.2403

MULLIKEN ATOMIC CHARGES
-----------------------
   0 C :    0.094433
   1 C :   -0.028288
   2 C :   -0.065207
   3 C :    0.000952
   4 C :    0.021296
   5 C :    0.151810
   6 C :    0.101716
   7 O :   -0.300812
   8 C :   -0.157577
   9 C :    0.076450
  10 C :    0.056301
  11 H :   -0.000135
  12 H :   -0.005021
  13 H :   -0.000448
  14 H :   -0.017110
  15 H :   -0.030298
  16 H :   -0.025838
  17 H :   -0.022491
  18 H :   -0.002043
  19 H :   -0.032651
  20 H :   -0.014883
  21 H :    0.164559
  22 H :   -0.007764
  23 H :   -0.002802
  24 H :    0.010165
  25 H :    0.010060
  26 H :    0.006252
  27 H :    0.000951
  28 H :    0.018422
Sum of atomic charges:    0.0000000

LOEWDIN ATOMIC CHARGES
----------------------
   0 C :   -0.047426
   1 C :   -0.061339
   2 C :   -0.029781
   3 C :   -0.028939
   4 C :   -0.035540
   5 C :   -0.042219
   6 C :    0.052372
   7 O :   -0.116271
   8 C :   -0.035420
   9 C :   -0.052351
  10 C :   -0.053680
  11 H :    0.016861
  12 H :    0.020580
  13 H :    0.023154
  14 H :    0.018739
  15 H :    0.017826
  16 H :    0.018473
  17 H :    0.024819
  18 H :    0.029182
  19 H :    0.026953
  20 H :    0.021445
  21 H :    0.076844
  22 H :    0.017555
  23 H :    0.023242
  24 H :    0.021495
  25 H :    0.027791
  26 H :    0.020750
  27 H :    0.020134
  28 H :    0.024750

  Mayer bond orders larger than 0.100000
B(  0-C ,  1-C ) :   1.0846 B(  0-C , 11-H ) :   0.9586 B(  0-C , 12-H ) :   0.9461
B(  0-C , 13-H ) :   0.9573 B(  1-C ,  2-C ) :   0.9754 B(  1-C ,  6-C ) :   1.0595
B(  1-C , 14-H ) :   0.8719 B(  2-C ,  3-C ) :   1.8957 B(  2-C , 15-H ) :   0.9798
B(  3-C ,  4-C ) :   1.0253 B(  3-C , 16-H ) :   0.9694 B(  4-C ,  5-C ) :   1.0297
B(  4-C ,  8-C ) :   1.0173 B(  4-C , 17-H ) :   0.8787 B(  5-C ,  6-C ) :   1.0804
B(  5-C , 18-H ) :   0.9053 B(  5-C , 19-H ) :   0.8947 B(  6-C ,  7-O ) :   1.0271
B(  6-C , 20-H ) :   0.8769 B(  7-O , 21-H ) :   0.9634 B(  8-C ,  9-C ) :   1.0834
B(  8-C , 10-C ) :   1.0791 B(  8-C , 22-H ) :   0.9311 B(  9-C , 23-H ) :   0.9595
B(  9-C , 24-H ) :   0.9622 B(  9-C , 25-H ) :   0.9608 B( 10-C , 26-H ) :   0.9562
B( 10-C , 27-H ) :   0.9537 B( 10-C , 28-H ) :   0.9603

FINAL SINGLE POINT ENERGY      -466.414883415498

DIPOLE MOMENT
-------------
                                X             Y             Z
Electronic contribution:     -5.44944       0.49490      -1.87561
Nuclear contribution   :      5.98224      -0.61939       2.18691
                        -----------------------------------------
Total Dipole Moment    :      0.53280      -0.12449       0.31130
                        -----------------------------------------
Magnitude (a.u.)       :      0.62950
Magnitude (Debye)      :      1.60007

Rotational constants in cm-1:     0.061666     0.026209     0.021209
Rotational constants in MHz :  1848.687280   785.738866   635.823555

                             ****ORCA TERMINATED NORMALLY****
TOTAL RUN TIME: 0 days 0 hours 3 minutes 32 seconds 700 msec
