                         Program Version 5.0.3 -  RELEASE  -
|  1> ! B3LYP DEF2-SVP TightSCF
|  2> %elprop
|  3> Polar 1
|  4> end
|  5> * xyzfile 0 1 _69.xyz
|  6>
|  7>                          ****END OF INPUT****

CARTESIAN COORDINATES (ANGSTROEM)
---------------------------------
  C      2.358271   -0.494678    1.466436
  N      1.140930    0.065921    0.946263
  C      1.079064    0.851313   -0.224214
  C      2.114077    1.000461   -0.994551
  C      3.408330    0.445265   -0.844004
  C      3.633387   -0.877842   -0.967845
  C      4.890127   -1.432350   -0.873771
  C      5.960735   -0.585991   -0.641966
  C      5.741363    0.775735   -0.512540
  C      4.465606    1.269164   -0.616207
  C     -0.207443    1.457208   -0.650226
  O     -0.245006    2.159277   -1.703023
  N     -1.379917    1.256775    0.103726
  C     -1.433171    0.238664    1.109441
  C     -0.104793   -0.097026    1.656998
  O     -0.009654   -0.569723    2.846343
  C     -2.138746   -0.985178    0.576746
  C     -3.511831   -0.631616    0.172567
  C     -4.482413   -0.746243    1.160159
  C     -5.757703   -0.359562    0.881143
  C     -6.088637    0.134432   -0.345861
  C     -5.132974    0.248560   -1.325005
  C     -3.804569   -0.139872   -1.081960
  O     -2.891388   -0.013409   -2.105476
  H      2.479302   -1.575346    1.363789
  H      3.225808    0.150133    1.533855
  H      2.120520   -0.492137    2.616948
  H      1.949011    1.660902   -1.896112
  H      2.835463   -1.619695   -1.153733
  H      5.067696   -2.508179   -0.977569
  H      6.980956   -0.938261   -0.555293
  H      6.572209    1.465301   -0.328503
  H      4.344549    2.344447   -0.507846
  H     -2.224769    1.882283   -0.092476
  H     -2.020601    0.609164    2.013523
  H     -2.184020   -1.786397    1.342344
  H     -1.554139   -1.364365   -0.292247
  H     -4.245977   -1.139717    2.154307
  H     -6.552890   -0.427122    1.613483
  H     -7.088670    0.441003   -0.572021
  H     -5.351492    0.630080   -2.300033
  H     -1.956600   -0.330269   -1.995588

 Total Charge           Charge          ....    0
 Multiplicity           Mult            ....    1
 Number of Electrons    NEL             ....  170
 Basis Dimension        Dim             ....  426

ORBITAL ENERGIES
----------------

  NO   OCC          E(Eh)            E(eV)
   0   2.0000     -19.162220      -521.4305
   1   2.0000     -19.115790      -520.1671
   2   2.0000     -19.106108      -519.9036
   3   2.0000     -14.387710      -391.5095
   4   2.0000     -14.372456      -391.0944
   5   2.0000     -10.307357      -280.4775
   6   2.0000     -10.306586      -280.4565
   7   2.0000     -10.258666      -279.1525
   8   2.0000     -10.252342      -278.9804
   9   2.0000     -10.238482      -278.6033
  10   2.0000     -10.220671      -278.1186
  11   2.0000     -10.210184      -277.8332
  12   2.0000     -10.193300      -277.3738
  13   2.0000     -10.192556      -277.3535
  14   2.0000     -10.192158      -277.3427
  15   2.0000     -10.191426      -277.3228
  16   2.0000     -10.190825      -277.3065
  17   2.0000     -10.190302      -277.2922
  18   2.0000     -10.189019      -277.2573
  19   2.0000     -10.188909      -277.2543
  20   2.0000     -10.186214      -277.1810
  21   2.0000     -10.185714      -277.1674
  22   2.0000     -10.184735      -277.1407
  23   2.0000     -10.179767      -277.0055
  24   2.0000      -1.035201       -28.1692
  25   2.0000      -1.026428       -27.9305
  26   2.0000      -1.007970       -27.4283
  27   2.0000      -0.944922       -25.7126
  28   2.0000      -0.930981       -25.3333
  29   2.0000      -0.874802       -23.8046
  30   2.0000      -0.864556       -23.5258
  31   2.0000      -0.804458       -21.8904
  32   2.0000      -0.801850       -21.8195
  33   2.0000      -0.758315       -20.6348
  34   2.0000      -0.750853       -20.4317
  35   2.0000      -0.747069       -20.3288
  36   2.0000      -0.743703       -20.2372
  37   2.0000      -0.708782       -19.2869
  38   2.0000      -0.671510       -18.2727
  39   2.0000      -0.645683       -17.5699
  40   2.0000      -0.622649       -16.9431
  41   2.0000      -0.614376       -16.7180
  42   2.0000      -0.610873       -16.6227
  43   2.0000      -0.607098       -16.5200
  44   2.0000      -0.588042       -16.0014
  45   2.0000      -0.563428       -15.3316
  46   2.0000      -0.553027       -15.0486
  47   2.0000      -0.537993       -14.6395
  48   2.0000      -0.514166       -13.9912
  49   2.0000      -0.512435       -13.9441
  50   2.0000      -0.498237       -13.5577
  51   2.0000      -0.491417       -13.3721
  52   2.0000      -0.479357       -13.0440
  53   2.0000      -0.475763       -12.9462
  54   2.0000      -0.469927       -12.7874
  55   2.0000      -0.463787       -12.6203
  56   2.0000      -0.449042       -12.2191
  57   2.0000      -0.445800       -12.1308
  58   2.0000      -0.441789       -12.0217
  59   2.0000      -0.426924       -11.6172
  60   2.0000      -0.426498       -11.6056
  61   2.0000      -0.424120       -11.5409
  62   2.0000      -0.414190       -11.2707
  63   2.0000      -0.409371       -11.1396
  64   2.0000      -0.404817       -11.0156
  65   2.0000      -0.403292       -10.9741
  66   2.0000      -0.391752       -10.6601
  67   2.0000      -0.389884       -10.6093
  68   2.0000      -0.380638       -10.3577
  69   2.0000      -0.371678       -10.1139
  70   2.0000      -0.357373        -9.7246
  71   2.0000      -0.354693        -9.6517
  72   2.0000      -0.351829        -9.5737
  73   2.0000      -0.346946        -9.4409
  74   2.0000      -0.342225        -9.3124
  75   2.0000      -0.337497        -9.1838
  76   2.0000      -0.320546        -8.7225
  77   2.0000      -0.278498        -7.5783
  78   2.0000      -0.269236        -7.3263
  79   2.0000      -0.265890        -7.2352
  80   2.0000      -0.263610        -7.1732
  81   2.0000      -0.256354        -6.9758
  82   2.0000      -0.250427        -6.8145
  83   2.0000      -0.233097        -6.3429
  84   2.0000      -0.227574        -6.1926
  85   0.0000      -0.053442        -1.4542
  86   0.0000      -0.030455        -0.8287
  87   0.0000      -0.013862        -0.3772
  88   0.0000      -0.009243        -0.2515
  89   0.0000      -0.005294        -0.1441

MULLIKEN ATOMIC CHARGES
-----------------------
   0 C :    0.145593
   1 N :   -0.273153
   2 C :    0.095583
   3 C :   -0.106953
   4 C :    0.073524
   5 C :    0.015086
   6 C :    0.021306
   7 C :    0.016800
   8 C :    0.021441
   9 C :   -0.000946
  10 C :    0.124265
  11 O :   -0.260172
  12 N :   -0.186722
  13 C :    0.083934
  14 C :    0.163791
  15 O :   -0.294676
  16 C :    0.138262
  17 C :   -0.090193
  18 C :   -0.010932
  19 C :    0.031866
  20 C :    0.051456
  21 C :   -0.021759
  22 C :    0.145053
  23 O :   -0.227655
  24 H :    0.034114
  25 H :    0.049088
  26 H :    0.039207
  27 H :    0.047020
  28 H :   -0.027867
  29 H :   -0.018598
  30 H :   -0.023045
  31 H :   -0.018713
  32 H :   -0.030958
  33 H :    0.181240
  34 H :    0.037852
  35 H :    0.018605
  36 H :   -0.029094
  37 H :   -0.022320
  38 H :   -0.031460
  39 H :   -0.028489
  40 H :   -0.032883
  41 H :    0.201501
Sum of atomic charges:   -0.0000000

LOEWDIN ATOMIC CHARGES
----------------------
   0 C :    0.013191
   1 N :   -0.026655
   2 C :   -0.034531
   3 C :   -0.017439
   4 C :   -0.046573
   5 C :   -0.012462
   6 C :   -0.024447
   7 C :   -0.023569
   8 C :   -0.022395
   9 C :   -0.017641
  10 C :    0.088276
  11 O :   -0.239438
  12 N :   -0.028930
  13 C :    0.002012
  14 C :    0.116469
  15 O :   -0.239749
  16 C :   -0.017288
  17 C :   -0.078398
  18 C :   -0.020400
  19 C :   -0.041315
  20 C :   -0.017903
  21 C :   -0.035099
  22 C :    0.050067
  23 O :   -0.076849
  24 H :    0.028538
  25 H :    0.037660
  26 H :    0.047660
  27 H :    0.058749
  28 H :    0.026759
  29 H :    0.029379
  30 H :    0.024354
  31 H :    0.028896
  32 H :    0.027672
  33 H :    0.119372
  34 H :    0.053300
  35 H :    0.041387
  36 H :    0.014868
  37 H :    0.030560
  38 H :    0.024422
  39 H :    0.026367
  40 H :    0.027422
  41 H :    0.103701

  Mayer bond orders larger than 0.100000
B(  0-C ,  1-N ) :   0.9756 B(  0-C , 24-H ) :   0.9588 B(  0-C , 25-H ) :   0.9536
B(  0-C , 26-H ) :   0.9172 B(  1-N ,  2-C ) :   1.0305 B(  1-N , 14-C ) :   1.1026
B(  2-C ,  3-C ) :   1.8790 B(  2-C , 10-C ) :   0.9041 B(  3-C ,  4-C ) :   0.9424
B(  3-C , 27-H ) :   0.9093 B(  4-C ,  5-C ) :   1.3462 B(  4-C ,  9-C ) :   1.3674
B(  5-C ,  6-C ) :   1.3822 B(  5-C , 28-H ) :   0.9940 B(  6-C ,  7-C ) :   1.3741
B(  6-C , 29-H ) :   0.9919 B(  7-C ,  8-C ) :   1.3749 B(  7-C , 30-H ) :   0.9902
B(  8-C ,  9-C ) :   1.3876 B(  8-C , 31-H ) :   0.9866 B(  9-C , 32-H ) :   1.0024
B( 10-C , 11-O ) :   2.0565 B( 10-C , 12-N ) :   1.1698 B( 12-N , 13-C ) :   0.9885
B( 12-N , 33-H ) :   0.8838 B( 13-C , 14-C ) :   0.9552 B( 13-C , 16-C ) :   1.0579
B( 13-C , 34-H ) :   0.8845 B( 14-C , 15-O ) :   1.9763 B( 16-C , 17-C ) :   1.0447
B( 16-C , 35-H ) :   0.9001 B( 16-C , 36-H ) :   0.8969 B( 17-C , 18-C ) :   1.3417
B( 17-C , 22-C ) :   1.3490 B( 18-C , 19-C ) :   1.3824 B( 18-C , 37-H ) :   0.9958
B( 19-C , 20-C ) :   1.3539 B( 19-C , 38-H ) :   0.9907 B( 20-C , 21-C ) :   1.3890
B( 20-C , 39-H ) :   0.9962 B( 21-C , 22-C ) :   1.3389 B( 21-C , 40-H ) :   0.9927
B( 22-C , 23-O ) :   1.2212 B( 23-O , 41-H ) :   0.9282

FINAL SINGLE POINT ENERGY     -1068.566205848727

DIPOLE MOMENT
-------------
                                X             Y             Z
Electronic contribution:     -3.91819       4.42386      -2.69943
Nuclear contribution   :      4.27062      -4.96691       3.06569
                        -----------------------------------------
Total Dipole Moment    :      0.35243      -0.54304       0.36626
                        -----------------------------------------
Magnitude (a.u.)       :      0.74381
Magnitude (Debye)      :      1.89061

Rotational constants in cm-1:     0.022022     0.003912     0.003623
Rotational constants in MHz :   660.212478   117.269769   108.619902

                             ****ORCA TERMINATED NORMALLY****
TOTAL RUN TIME: 0 days 0 hours 24 minutes 4 seconds 389 msec
