                         Program Version 5.0.3 -  RELEASE  -
|  1> ! B3LYP DEF2-SVP TightSCF
|  2> %elprop
|  3> Polar 1
|  4> end
|  5> * xyzfile 0 1 _74.xyz
|  6>
|  7>                          ****END OF INPUT****

CARTESIAN COORDINATES (ANGSTROEM)
---------------------------------
  C      6.270807    0.230212   -1.903914
  C      5.788296    0.244790   -0.501036
  C      4.962808   -0.655573   -0.014733
  C      4.393042   -1.794272   -0.748741
  C      2.898114   -1.748609   -0.787411
  C      2.226169   -0.884645   -1.633040
  C      0.831652   -0.867231   -1.642945
  C      0.108949   -1.692265   -0.828085
  C      0.797850   -2.542590    0.004007
  C      2.176619   -2.591271    0.044568
  C     -1.389266   -1.668446   -0.839865
  C     -1.927685   -0.695710    0.175027
  C     -3.413605   -0.655833    0.189393
  C     -3.940246    0.336562    1.184449
  C     -4.666431    1.448214    0.814481
  C     -5.134489    2.340124    1.756742
  C     -4.901445    2.166041    3.105573
  C     -4.176698    1.057367    3.480649
  C     -3.703473    0.155867    2.530091
  O     -5.383953    3.081828    4.052653
  C     -4.081372   -1.963311    0.363415
  O     -3.417211   -2.955049    0.720775
  O     -5.438177   -2.128533    0.140263
  C     -1.378057    0.664028   -0.180328
  O     -0.615835    1.293717    0.563403
  O     -1.736993    1.241637   -1.390701
  C     -1.220029    2.523148   -1.727930
  O      2.984142   -0.064758   -2.442533
  C      6.291921    1.363903    0.377790
  H      7.293086    0.701960   -1.919488
  H      5.638354    0.925349   -2.511545
  H      6.358590   -0.771449   -2.330342
  H      4.661955   -0.558084    1.043151
  H      4.765745   -1.897363   -1.779805
  H      4.691332   -2.741515   -0.228865
  H      0.385528   -0.169424   -2.332514
  H      0.204173   -3.193913    0.647214
  H      2.678455   -3.290674    0.729899
  H     -1.698572   -2.705887   -0.716314
  H     -1.678601   -1.248983   -1.839281
  H     -1.517910   -0.991303    1.182109
  H     -3.739295   -0.275781   -0.821899
  H     -4.850747    1.584836   -0.256638
  H     -5.701654    3.205870    1.449937
  H     -3.967365    0.877968    4.535964
  H     -3.133846   -0.714484    2.832702
  H     -6.307374    2.916565    4.441801
  H     -5.843690   -2.996977   -0.195292
  H     -0.564384    2.375995   -2.615519
  H     -2.072781    3.146641   -2.042590
  H     -0.649169    2.961240   -0.872193
  H      2.582804    0.604662   -3.097905
  H      6.470099    0.951223    1.412404
  H      7.266650    1.729951    0.030826
  H      5.523212    2.147227    0.392167

 Total Charge           Charge          ....    0
 Multiplicity           Mult            ....    1
 Number of Electrons    NEL             ....  212
 Basis Dimension        Dim             ....  536

ORBITAL ENERGIES
----------------

  NO   OCC          E(Eh)            E(eV)
   0   2.0000     -19.177058      -521.8343
   1   2.0000     -19.176383      -521.8159
   2   2.0000     -19.152779      -521.1736
   3   2.0000     -19.145732      -520.9819
   4   2.0000     -19.123661      -520.3813
   5   2.0000     -19.116460      -520.1853
   6   2.0000     -10.328671      -281.0574
   7   2.0000     -10.315087      -280.6878
   8   2.0000     -10.246304      -278.8161
   9   2.0000     -10.242165      -278.7035
  10   2.0000     -10.234053      -278.4828
  11   2.0000     -10.219419      -278.0845
  12   2.0000     -10.211927      -277.8807
  13   2.0000     -10.195967      -277.4464
  14   2.0000     -10.191589      -277.3272
  15   2.0000     -10.189241      -277.2634
  16   2.0000     -10.186909      -277.1999
  17   2.0000     -10.185706      -277.1672
  18   2.0000     -10.183029      -277.0943
  19   2.0000     -10.175198      -276.8812
  20   2.0000     -10.173623      -276.8384
  21   2.0000     -10.171744      -276.7872
  22   2.0000     -10.169445      -276.7247
  23   2.0000     -10.169281      -276.7202
  24   2.0000     -10.168445      -276.6974
  25   2.0000     -10.167409      -276.6693
  26   2.0000     -10.162803      -276.5439
  27   2.0000     -10.162270      -276.5294
  28   2.0000     -10.150811      -276.2176
  29   2.0000      -1.080510       -29.4022
  30   2.0000      -1.069713       -29.1084
  31   2.0000      -1.018084       -27.7035
  32   2.0000      -1.008800       -27.4509
  33   2.0000      -0.987015       -26.8580
  34   2.0000      -0.984632       -26.7932
  35   2.0000      -0.872966       -23.7546
  36   2.0000      -0.852640       -23.2015
  37   2.0000      -0.831915       -22.6376
  38   2.0000      -0.801873       -21.8201
  39   2.0000      -0.779909       -21.2224
  40   2.0000      -0.752619       -20.4798
  41   2.0000      -0.744933       -20.2707
  42   2.0000      -0.724003       -19.7011
  43   2.0000      -0.718828       -19.5603
  44   2.0000      -0.714185       -19.4340
  45   2.0000      -0.687674       -18.7126
  46   2.0000      -0.668157       -18.1815
  47   2.0000      -0.651108       -17.7176
  48   2.0000      -0.620399       -16.8819
  49   2.0000      -0.619012       -16.8442
  50   2.0000      -0.616890       -16.7864
  51   2.0000      -0.603549       -16.4234
  52   2.0000      -0.594444       -16.1756
  53   2.0000      -0.566601       -15.4180
  54   2.0000      -0.557346       -15.1662
  55   2.0000      -0.545091       -14.8327
  56   2.0000      -0.531455       -14.4616
  57   2.0000      -0.520767       -14.1708
  58   2.0000      -0.506893       -13.7933
  59   2.0000      -0.493610       -13.4318
  60   2.0000      -0.493141       -13.4190
  61   2.0000      -0.484322       -13.1791
  62   2.0000      -0.478408       -13.0182
  63   2.0000      -0.470753       -12.8098
  64   2.0000      -0.464605       -12.6426
  65   2.0000      -0.461707       -12.5637
  66   2.0000      -0.457390       -12.4462
  67   2.0000      -0.446024       -12.1369
  68   2.0000      -0.444630       -12.0990
  69   2.0000      -0.440066       -11.9748
  70   2.0000      -0.435164       -11.8414
  71   2.0000      -0.427619       -11.6361
  72   2.0000      -0.424283       -11.5453
  73   2.0000      -0.421798       -11.4777
  74   2.0000      -0.421177       -11.4608
  75   2.0000      -0.413770       -11.2593
  76   2.0000      -0.411609       -11.2005
  77   2.0000      -0.397323       -10.8117
  78   2.0000      -0.390322       -10.6212
  79   2.0000      -0.384016       -10.4496
  80   2.0000      -0.382146       -10.3987
  81   2.0000      -0.379234       -10.3195
  82   2.0000      -0.375333       -10.2133
  83   2.0000      -0.370917       -10.0932
  84   2.0000      -0.364009        -9.9052
  85   2.0000      -0.356821        -9.7096
  86   2.0000      -0.354682        -9.6514
  87   2.0000      -0.350843        -9.5469
  88   2.0000      -0.349724        -9.5165
  89   2.0000      -0.345873        -9.4117
  90   2.0000      -0.345282        -9.3956
  91   2.0000      -0.337313        -9.1788
  92   2.0000      -0.333019        -9.0619
  93   2.0000      -0.322404        -8.7731
  94   2.0000      -0.317500        -8.6396
  95   2.0000      -0.313899        -8.5416
  96   2.0000      -0.312118        -8.4932
  97   2.0000      -0.295442        -8.0394
  98   2.0000      -0.293513        -7.9869
  99   2.0000      -0.274839        -7.4787
 100   2.0000      -0.268668        -7.3108
 101   2.0000      -0.259826        -7.0702
 102   2.0000      -0.246380        -6.7043
 103   2.0000      -0.238473        -6.4892
 104   2.0000      -0.220090        -5.9890
 105   2.0000      -0.209264        -5.6944
 106   0.0000      -0.027931        -0.7600
 107   0.0000      -0.014811        -0.4030
 108   0.0000      -0.006547        -0.1781
 109   0.0000       0.001891         0.0514
 110   0.0000       0.006072         0.1652

MULLIKEN ATOMIC CHARGES
-----------------------
   0 C :    0.103776
   1 C :   -0.213361
   2 C :   -0.051627
   3 C :    0.220093
   4 C :   -0.109889
   5 C :    0.200053
   6 C :   -0.064415
   7 C :   -0.023842
   8 C :   -0.018002
   9 C :   -0.020235
  10 C :    0.150678
  11 C :    0.053436
  12 C :    0.060487
  13 C :    0.023082
  14 C :   -0.000712
  15 C :   -0.011720
  16 C :    0.221069
  17 C :   -0.019038
  18 C :   -0.001966
  19 O :   -0.316439
  20 C :    0.183895
  21 O :   -0.245823
  22 O :   -0.252840
  23 C :    0.175932
  24 O :   -0.227461
  25 O :   -0.351054
  26 C :    0.163130
  27 O :   -0.259248
  28 C :    0.066781
  29 H :   -0.010421
  30 H :    0.012827
  31 H :    0.016388
  32 H :   -0.036425
  33 H :   -0.007233
  34 H :   -0.019907
  35 H :   -0.085362
  36 H :   -0.039052
  37 H :   -0.033094
  38 H :    0.028253
  39 H :   -0.007508
  40 H :    0.031543
  41 H :    0.017115
  42 H :   -0.031441
  43 H :   -0.037607
  44 H :   -0.028029
  45 H :   -0.018854
  46 H :    0.215593
  47 H :    0.227811
  48 H :    0.018988
  49 H :    0.031924
  50 H :    0.064941
  51 H :    0.206674
  52 H :    0.019035
  53 H :   -0.001199
  54 H :    0.030301
Sum of atomic charges:   -0.0000000

LOEWDIN ATOMIC CHARGES
----------------------
   0 C :   -0.047660
   1 C :   -0.048312
   2 C :   -0.052073
   3 C :   -0.019864
   4 C :   -0.044863
   5 C :    0.062261
   6 C :   -0.068379
   7 C :   -0.028944
   8 C :   -0.044714
   9 C :   -0.018499
  10 C :   -0.013711
  11 C :   -0.027188
  12 C :   -0.045508
  13 C :   -0.030883
  14 C :   -0.017469
  15 C :   -0.036371
  16 C :    0.048617
  17 C :   -0.031761
  18 C :   -0.007696
  19 O :   -0.137862
  20 C :    0.132308
  21 O :   -0.201385
  22 O :   -0.105209
  23 C :    0.134556
  24 O :   -0.182132
  25 O :   -0.129987
  26 C :    0.078208
  27 O :   -0.101460
  28 C :   -0.046747
  29 H :    0.022361
  30 H :    0.031739
  31 H :    0.024533
  32 H :    0.018600
  33 H :    0.029131
  34 H :    0.029020
  35 H :    0.012218
  36 H :    0.022097
  37 H :    0.028115
  38 H :    0.033147
  39 H :    0.025795
  40 H :    0.050777
  41 H :    0.050039
  42 H :    0.026522
  43 H :    0.027104
  44 H :    0.031158
  45 H :    0.027501
  46 H :    0.125357
  47 H :    0.139295
  48 H :    0.015247
  49 H :    0.021928
  50 H :    0.029211
  51 H :    0.126113
  52 H :    0.033736
  53 H :    0.019059
  54 H :    0.032920

  Mayer bond orders larger than 0.100000
B(  0-C ,  1-C ) :   1.0996 B(  0-C , 29-H ) :   0.9416 B(  0-C , 30-H ) :   0.9404
B(  0-C , 31-H ) :   0.9515 B(  1-C ,  2-C ) :   1.9280 B(  1-C , 28-C ) :   1.0442
B(  2-C ,  3-C ) :   1.0548 B(  2-C , 32-H ) :   0.9437 B(  3-C ,  4-C ) :   1.0332
B(  3-C , 33-H ) :   0.9026 B(  3-C , 34-H ) :   0.8868 B(  4-C ,  5-C ) :   1.3904
B(  4-C ,  9-C ) :   1.3862 B(  5-C ,  6-C ) :   1.3175 B(  5-C , 27-O ) :   1.1757
B(  6-C ,  7-C ) :   1.3349 B(  6-C , 35-H ) :   0.9809 B(  7-C ,  8-C ) :   1.4078
B(  7-C , 10-C ) :   1.0347 B(  8-C ,  9-C ) :   1.3454 B(  8-C , 36-H ) :   0.9835
B(  9-C , 37-H ) :   0.9934 B( 10-C , 11-C ) :   1.0734 B( 10-C , 38-H ) :   0.8978
B( 10-C , 39-H ) :   0.9012 B( 11-C , 12-C ) :   1.0366 B( 11-C , 23-C ) :   0.9372
B( 11-C , 40-H ) :   0.8686 B( 12-C , 13-C ) :   0.9993 B( 12-C , 20-C ) :   0.9372
B( 12-C , 41-H ) :   0.8593 B( 13-C , 14-C ) :   1.3993 B( 13-C , 18-C ) :   1.3859
B( 14-C , 15-C ) :   1.3299 B( 14-C , 42-H ) :   0.9857 B( 15-C , 16-C ) :   1.3641
B( 15-C , 43-H ) :   0.9950 B( 16-C , 17-C ) :   1.3627 B( 16-C , 19-O ) :   1.0726
B( 17-C , 18-C ) :   1.3458 B( 17-C , 44-H ) :   0.9970 B( 18-C , 45-H ) :   0.9830
B( 19-O , 46-H ) :   0.9367 B( 20-C , 21-O ) :   2.0365 B( 20-C , 22-O ) :   1.2202
B( 22-O , 47-H ) :   0.9080 B( 23-C , 24-O ) :   2.0783 B( 23-C , 25-O ) :   1.1039
B( 25-O , 26-C ) :   0.9217 B( 26-C , 48-H ) :   0.9753 B( 26-C , 49-H ) :   0.9787
B( 26-C , 50-H ) :   0.9537 B( 27-O , 51-H ) :   0.9212 B( 28-C , 52-H ) :   0.9640
B( 28-C , 53-H ) :   0.9560 B( 28-C , 54-H ) :   0.9621

FINAL SINGLE POINT ENERGY     -1341.624859148785

DIPOLE MOMENT
-------------
                                X             Y             Z
Electronic contribution:    -31.84990      -5.34093       7.10296
Nuclear contribution   :     30.24302       5.66039      -8.22678
                        -----------------------------------------
Total Dipole Moment    :     -1.60688       0.31946      -1.12382
                        -----------------------------------------
Magnitude (a.u.)       :      1.98673
Magnitude (Debye)      :      5.04986

Rotational constants in cm-1:     0.009689     0.002500     0.002283
Rotational constants in MHz :   290.456873    74.938581    68.435958

                             ****ORCA TERMINATED NORMALLY****
TOTAL RUN TIME: 0 days 0 hours 22 minutes 57 seconds 758 msec
