                         Program Version 5.0.3 -  RELEASE  -
|  1> ! B3LYP DEF2-SVP TightSCF
|  2> %elprop
|  3> Polar 1
|  4> end
|  5> * xyzfile 0 1 _77.xyz
|  6>
|  7>                          ****END OF INPUT****

CARTESIAN COORDINATES (ANGSTROEM)
---------------------------------
  C     -4.352173    2.921821   -0.431186
  C     -3.959665    1.473428   -0.382062
  C     -4.920550    0.484361   -0.460866
  C     -4.557716   -0.837997   -0.415833
  C     -3.248220   -1.192327   -0.293148
  C     -2.256049   -0.244728   -0.210734
  C     -2.660646    1.109787   -0.259974
  O     -0.969641   -0.475331   -0.088855
  C      0.041413   -1.282786    0.114290
  C     -0.069701   -2.636114    0.383195
  C      1.063542   -3.398026    0.580820
  C      2.291054   -2.820535    0.509767
  C      2.480474   -1.480074    0.244324
  C      1.336670   -0.703118    0.047571
  C      1.394744    0.731769   -0.105759
  C      2.802043    1.152158   -0.333828
  C      2.710663    2.475860   -0.660299
  C      1.242678    2.774781   -0.852964
  O      0.673273    1.442967   -0.989129
  C      3.912621    3.126765   -0.790047
  C      5.120792    2.440832   -0.595424
  C      5.105087    1.087216   -0.270292
  C      3.901648    0.389739   -0.130557
  O      3.794017   -0.962324    0.169542
  C      0.909463   -4.844300    0.868971
  O     -5.517925   -1.855956   -0.494273
  H     -3.829009    3.433067    0.399955
  H     -5.440140    3.026861   -0.347443
  H     -4.022128    3.336222   -1.419898
  H     -5.961302    0.762845   -0.558308
  H     -2.985602   -2.269038   -0.268761
  H     -1.882057    1.880135   -0.192676
  H     -1.048075   -3.092658    0.444974
  H      3.184652   -3.425844    0.666622
  H      1.091186    1.149621    0.946491
  H      0.788992    3.305535   -0.033055
  H      1.094564    3.225356   -1.844412
  H      3.897049    4.176678   -1.045305
  H      6.020655    3.003208   -0.708596
  H      6.028757    0.552807   -0.120399
  H      0.985526   -5.022471    1.949195
  H     -0.080316   -5.235714    0.541252
  H      1.696318   -5.431786    0.351280
  H     -5.806969   -2.252689   -1.378100

 Total Charge           Charge          ....    0
 Multiplicity           Mult            ....    1
 Number of Electrons    NEL             ....  182
 Basis Dimension        Dim             ....  454

ORBITAL ENERGIES
----------------

  NO   OCC          E(Eh)            E(eV)
   0   2.0000     -19.186525      -522.0919
   1   2.0000     -19.174666      -521.7692
   2   2.0000     -19.135813      -520.7119
   3   2.0000     -19.134941      -520.6882
   4   2.0000     -10.261036      -279.2170
   5   2.0000     -10.256918      -279.1049
   6   2.0000     -10.253769      -279.0192
   7   2.0000     -10.249057      -278.8910
   8   2.0000     -10.244636      -278.7707
   9   2.0000     -10.233972      -278.4805
  10   2.0000     -10.233914      -278.4790
  11   2.0000     -10.192831      -277.3610
  12   2.0000     -10.192338      -277.3476
  13   2.0000     -10.191477      -277.3242
  14   2.0000     -10.189577      -277.2725
  15   2.0000     -10.188484      -277.2427
  16   2.0000     -10.186748      -277.1955
  17   2.0000     -10.186461      -277.1877
  18   2.0000     -10.185199      -277.1534
  19   2.0000     -10.183811      -277.1156
  20   2.0000     -10.176398      -276.9139
  21   2.0000     -10.176386      -276.9135
  22   2.0000     -10.173993      -276.8484
  23   2.0000     -10.172868      -276.8178
  24   2.0000     -10.168734      -276.7053
  25   2.0000     -10.167521      -276.6723
  26   2.0000      -1.099066       -29.9071
  27   2.0000      -1.068660       -29.0797
  28   2.0000      -1.058071       -28.7916
  29   2.0000      -1.000403       -27.2223
  30   2.0000      -0.873796       -23.7772
  31   2.0000      -0.863370       -23.4935
  32   2.0000      -0.850985       -23.1565
  33   2.0000      -0.804178       -21.8828
  34   2.0000      -0.784114       -21.3368
  35   2.0000      -0.771304       -20.9882
  36   2.0000      -0.759661       -20.6714
  37   2.0000      -0.757177       -20.6038
  38   2.0000      -0.719001       -19.5650
  39   2.0000      -0.713323       -19.4105
  40   2.0000      -0.682228       -18.5644
  41   2.0000      -0.678710       -18.4686
  42   2.0000      -0.666702       -18.1419
  43   2.0000      -0.642568       -17.4852
  44   2.0000      -0.627807       -17.0835
  45   2.0000      -0.606146       -16.4941
  46   2.0000      -0.602976       -16.4078
  47   2.0000      -0.569710       -15.5026
  48   2.0000      -0.557965       -15.1830
  49   2.0000      -0.553447       -15.0601
  50   2.0000      -0.534521       -14.5451
  51   2.0000      -0.521209       -14.1828
  52   2.0000      -0.507346       -13.8056
  53   2.0000      -0.501839       -13.6557
  54   2.0000      -0.491877       -13.3847
  55   2.0000      -0.490062       -13.3353
  56   2.0000      -0.485991       -13.2245
  57   2.0000      -0.480420       -13.0729
  58   2.0000      -0.467832       -12.7304
  59   2.0000      -0.463998       -12.6260
  60   2.0000      -0.454705       -12.3732
  61   2.0000      -0.442616       -12.0442
  62   2.0000      -0.430995       -11.7280
  63   2.0000      -0.424692       -11.5564
  64   2.0000      -0.423496       -11.5239
  65   2.0000      -0.418912       -11.3992
  66   2.0000      -0.408330       -11.1112
  67   2.0000      -0.400925       -10.9097
  68   2.0000      -0.398403       -10.8411
  69   2.0000      -0.395899       -10.7730
  70   2.0000      -0.394280       -10.7289
  71   2.0000      -0.386114       -10.5067
  72   2.0000      -0.376123       -10.2348
  73   2.0000      -0.371894       -10.1197
  74   2.0000      -0.366987        -9.9862
  75   2.0000      -0.366318        -9.9680
  76   2.0000      -0.362412        -9.8617
  77   2.0000      -0.354894        -9.6572
  78   2.0000      -0.345861        -9.4114
  79   2.0000      -0.341450        -9.2913
  80   2.0000      -0.326382        -8.8813
  81   2.0000      -0.320894        -8.7320
  82   2.0000      -0.304513        -8.2862
  83   2.0000      -0.286289        -7.7903
  84   2.0000      -0.268802        -7.3145
  85   2.0000      -0.263870        -7.1803
  86   2.0000      -0.249562        -6.7909
  87   2.0000      -0.246394        -6.7047
  88   2.0000      -0.238771        -6.4973
  89   2.0000      -0.219993        -5.9863
  90   2.0000      -0.206084        -5.6078
  91   0.0000      -0.020916        -0.5691
  92   0.0000      -0.015059        -0.4098
  93   0.0000      -0.004685        -0.1275
  94   0.0000       0.003425         0.0932
  95   0.0000       0.009791         0.2664

MULLIKEN ATOMIC CHARGES
-----------------------
   0 C :    0.085286
   1 C :   -0.009424
   2 C :   -0.081013
   3 C :    0.248087
   4 C :   -0.146208
   5 C :    0.284329
   6 C :   -0.080512
   7 O :   -0.201079
   8 C :    0.270293
   9 C :   -0.148030
  10 C :    0.035833
  11 C :   -0.126730
  12 C :    0.261999
  13 C :   -0.164073
  14 C :    0.276327
  15 C :   -0.113693
  16 C :   -0.098401
  17 C :    0.446291
  18 O :   -0.344968
  19 C :   -0.099055
  20 C :    0.074682
  21 C :   -0.073247
  22 C :    0.247146
  23 O :   -0.289002
  24 C :    0.076819
  25 O :   -0.328936
  26 H :    0.026132
  27 H :    0.008156
  28 H :    0.033567
  29 H :   -0.058515
  30 H :   -0.037937
  31 H :   -0.047838
  32 H :   -0.057062
  33 H :   -0.044601
  34 H :   -0.013046
  35 H :   -0.004103
  36 H :    0.015971
  37 H :   -0.044099
  38 H :   -0.027702
  39 H :   -0.030508
  40 H :    0.031047
  41 H :    0.013101
  42 H :    0.021822
  43 H :    0.212893
Sum of atomic charges:    0.0000000

LOEWDIN ATOMIC CHARGES
----------------------
   0 C :   -0.039007
   1 C :   -0.024734
   2 C :   -0.065111
   3 C :    0.055645
   4 C :   -0.090606
   5 C :    0.058728
   6 C :   -0.052967
   7 O :    0.015646
   8 C :    0.069477
   9 C :   -0.073764
  10 C :   -0.017051
  11 C :   -0.060023
  12 C :    0.082247
  13 C :   -0.088210
  14 C :    0.035406
  15 C :   -0.054431
  16 C :   -0.037378
  17 C :    0.117717
  18 O :   -0.133044
  19 C :   -0.031242
  20 C :   -0.016322
  21 C :   -0.029919
  22 C :    0.054431
  23 O :   -0.076526
  24 C :   -0.039622
  25 O :   -0.141466
  26 H :    0.034547
  27 H :    0.026258
  28 H :    0.039560
  29 H :    0.021928
  30 H :    0.031179
  31 H :    0.025650
  32 H :    0.021911
  33 H :    0.029458
  34 H :    0.006157
  35 H :    0.016875
  36 H :    0.033047
  37 H :    0.018573
  38 H :    0.026617
  39 H :    0.027456
  40 H :    0.037085
  41 H :    0.030718
  42 H :    0.033726
  43 H :    0.121381

  Mayer bond orders larger than 0.100000
B(  0-C ,  1-C ) :   1.0474 B(  0-C , 26-H ) :   0.9585 B(  0-C , 27-H ) :   0.9595
B(  0-C , 28-H ) :   0.9543 B(  1-C ,  2-C ) :   1.2989 B(  1-C ,  6-C ) :   1.3934
B(  2-C ,  3-C ) :   1.3633 B(  2-C , 29-H ) :   1.0106 B(  3-C ,  4-C ) :   1.3299
B(  3-C , 25-O ) :   1.0438 B(  4-C ,  5-C ) :   1.3062 B(  4-C , 30-H ) :   1.0028
B(  5-C ,  6-C ) :   1.3131 B(  5-C ,  7-O ) :   1.0120 B(  6-C , 31-H ) :   1.0064
B(  7-O ,  8-C ) :   1.1035 B(  8-C ,  9-C ) :   1.3187 B(  8-C , 13-C ) :   1.2926
B(  9-C , 10-C ) :   1.3083 B(  9-C , 32-H ) :   1.0091 B( 10-C , 11-C ) :   1.3610
B( 10-C , 24-C ) :   1.0612 B( 11-C , 12-C ) :   1.3190 B( 11-C , 33-H ) :   1.0042
B( 12-C , 13-C ) :   1.3943 B( 12-C , 23-O ) :   1.0531 B( 13-C , 14-C ) :   0.9882
B( 14-C , 15-C ) :   0.9659 B( 14-C , 18-O ) :   1.0803 B( 14-C , 34-H ) :   0.8530
B( 15-C , 16-C ) :   1.3885 B( 15-C , 22-C ) :   1.3643 B( 16-C , 17-C ) :   1.0100
B( 16-C , 19-C ) :   1.3908 B( 17-C , 18-O ) :   0.9727 B( 17-C , 35-H ) :   0.8792
B( 17-C , 36-H ) :   0.9266 B( 19-C , 20-C ) :   1.3368 B( 19-C , 37-H ) :   0.9964
B( 20-C , 21-C ) :   1.3632 B( 20-C , 38-H ) :   0.9981 B( 21-C , 22-C ) :   1.3200
B( 21-C , 39-H ) :   0.9932 B( 22-C , 23-O ) :   1.0700 B( 24-C , 40-H ) :   0.9495
B( 24-C , 41-H ) :   0.9572 B( 24-C , 42-H ) :   0.9567 B( 25-O , 43-H ) :   0.9346

FINAL SINGLE POINT ENERGY     -1148.471365286325

DIPOLE MOMENT
-------------
                                X             Y             Z
Electronic contribution:      8.85279      -1.66058      -1.12201
Nuclear contribution   :     -8.89016       1.99052       0.77469
                        -----------------------------------------
Total Dipole Moment    :     -0.03737       0.32994      -0.34732
                        -----------------------------------------
Magnitude (a.u.)       :      0.48051
Magnitude (Debye)      :      1.22135

Rotational constants in cm-1:     0.010725     0.004597     0.003248
Rotational constants in MHz :   321.521328   137.821339    97.372800

                             ****ORCA TERMINATED NORMALLY****
TOTAL RUN TIME: 0 days 0 hours 15 minutes 39 seconds 867 msec
