                         Program Version 5.0.3 -  RELEASE  -
|  1> ! B3LYP DEF2-SVP TightSCF
|  2> %elprop
|  3> Polar 1
|  4> end
|  5> * xyzfile 0 1 _63.xyz
|  6>
|  7>                          ****END OF INPUT****

CARTESIAN COORDINATES (ANGSTROEM)
---------------------------------
  C     -4.482956   -1.005829    1.215962
  O     -3.991895   -1.091388   -0.064603
  N     -2.864353   -0.386933   -0.272116
  C     -2.881258    0.647467   -1.281626
  C     -1.824037    1.640848   -0.965980
  O     -2.067933    2.894994   -1.037204
  N     -0.551456    1.155717   -0.588489
  C     -0.327067   -0.182363   -0.047501
  C     -1.681826   -0.622778    0.455843
  O     -1.774707   -1.217173    1.554662
  C      0.594090   -0.087773    1.148400
  C      1.904496    0.551576    0.832876
  C      2.105958    1.939210    0.986186
  N      3.335157    2.208472    0.574997
  C      3.942864    1.074906    0.164694
  C      5.198133    0.805535   -0.331574
  C      5.575051   -0.484555   -0.666672
  C      4.688197   -1.517658   -0.504320
  C      3.410719   -1.264201   -0.002603
  C      3.051668    0.029239    0.324589
  S      0.229242   -1.389120   -1.214732
  C      0.169268   -3.028549   -0.389075
  C     -4.228705    1.341799   -1.352047
  O     -4.509414    1.922808   -0.122955
  H     -5.588239   -0.928358    1.142763
  H     -4.122994   -0.140633    1.784427
  H     -4.279163   -1.953921    1.755193
  H     -2.643889    0.216691   -2.291244
  H      0.265221    1.820339   -0.715380
  H      0.773968   -1.109796    1.573195
  H      0.095307    0.479101    1.935513
  H      1.358601    2.608389    1.371952
  H      3.833283    3.144875    0.542357
  H      5.885470    1.641321   -0.451036
  H      6.577865   -0.620601   -1.051997
  H      4.980509   -2.523847   -0.763728
  H      2.732054   -2.082027    0.139965
  H     -0.725563   -3.560202   -0.751984
  H      1.053774   -3.623629   -0.630587
  H      0.142144   -2.909044    0.725412
  H     -5.005006    0.615781   -1.599267
  H     -4.160961    2.133073   -2.124051
  H     -4.191615    2.858235   -0.059067

 Total Charge           Charge          ....    0
 Multiplicity           Mult            ....    1
 Number of Electrons    NEL             ....  184
 Basis Dimension        Dim             ....  435

ORBITAL ENERGIES
----------------

  NO   OCC          E(Eh)            E(eV)
   0   2.0000     -88.839136     -2417.4358
   1   2.0000     -19.180594      -521.9305
   2   2.0000     -19.121317      -520.3175
   3   2.0000     -19.120682      -520.3002
   4   2.0000     -19.105529      -519.8879
   5   2.0000     -14.405747      -392.0003
   6   2.0000     -14.386881      -391.4869
   7   2.0000     -14.376030      -391.1917
   8   2.0000     -10.311072      -280.5785
   9   2.0000     -10.295511      -280.1551
  10   2.0000     -10.273353      -279.5522
  11   2.0000     -10.239384      -278.6278
  12   2.0000     -10.232600      -278.4432
  13   2.0000     -10.220523      -278.1146
  14   2.0000     -10.218501      -278.0595
  15   2.0000     -10.218042      -278.0471
  16   2.0000     -10.208959      -277.7999
  17   2.0000     -10.194911      -277.4176
  18   2.0000     -10.183166      -277.0980
  19   2.0000     -10.177403      -276.9412
  20   2.0000     -10.176659      -276.9210
  21   2.0000     -10.174178      -276.8535
  22   2.0000     -10.173822      -276.8438
  23   2.0000     -10.167395      -276.6689
  24   2.0000      -7.935558      -215.9375
  25   2.0000      -5.904847      -160.6791
  26   2.0000      -5.901161      -160.5787
  27   2.0000      -5.893883      -160.3807
  28   2.0000      -1.120391       -30.4874
  29   2.0000      -1.023795       -27.8589
  30   2.0000      -1.010451       -27.4958
  31   2.0000      -1.001504       -27.2523
  32   2.0000      -0.997739       -27.1499
  33   2.0000      -0.937836       -25.5198
  34   2.0000      -0.884422       -24.0663
  35   2.0000      -0.844668       -22.9846
  36   2.0000      -0.820099       -22.3160
  37   2.0000      -0.792888       -21.5756
  38   2.0000      -0.758467       -20.6389
  39   2.0000      -0.743955       -20.2441
  40   2.0000      -0.738622       -20.0989
  41   2.0000      -0.715599       -19.4725
  42   2.0000      -0.703139       -19.1334
  43   2.0000      -0.674227       -18.3466
  44   2.0000      -0.646379       -17.5889
  45   2.0000      -0.631324       -17.1792
  46   2.0000      -0.624062       -16.9816
  47   2.0000      -0.607501       -16.5309
  48   2.0000      -0.592835       -16.1319
  49   2.0000      -0.573486       -15.6053
  50   2.0000      -0.557594       -15.1729
  51   2.0000      -0.545367       -14.8402
  52   2.0000      -0.540467       -14.7068
  53   2.0000      -0.531004       -14.4493
  54   2.0000      -0.507731       -13.8161
  55   2.0000      -0.500304       -13.6140
  56   2.0000      -0.492756       -13.4086
  57   2.0000      -0.476237       -12.9591
  58   2.0000      -0.470260       -12.7964
  59   2.0000      -0.466675       -12.6989
  60   2.0000      -0.459136       -12.4937
  61   2.0000      -0.447887       -12.1876
  62   2.0000      -0.443124       -12.0580
  63   2.0000      -0.441157       -12.0045
  64   2.0000      -0.438109       -11.9216
  65   2.0000      -0.434041       -11.8109
  66   2.0000      -0.426343       -11.6014
  67   2.0000      -0.421769       -11.4769
  68   2.0000      -0.418235       -11.3808
  69   2.0000      -0.413423       -11.2498
  70   2.0000      -0.405875       -11.0444
  71   2.0000      -0.398898       -10.8546
  72   2.0000      -0.391803       -10.6615
  73   2.0000      -0.378001       -10.2859
  74   2.0000      -0.373919       -10.1748
  75   2.0000      -0.369478       -10.0540
  76   2.0000      -0.355361        -9.6699
  77   2.0000      -0.352396        -9.5892
  78   2.0000      -0.346462        -9.4277
  79   2.0000      -0.335784        -9.1371
  80   2.0000      -0.323259        -8.7963
  81   2.0000      -0.317330        -8.6350
  82   2.0000      -0.302175        -8.2226
  83   2.0000      -0.288112        -7.8399
  84   2.0000      -0.281077        -7.6485
  85   2.0000      -0.273473        -7.4416
  86   2.0000      -0.263453        -7.1689
  87   2.0000      -0.254721        -6.9313
  88   2.0000      -0.236934        -6.4473
  89   2.0000      -0.232494        -6.3265
  90   2.0000      -0.227133        -6.1806
  91   2.0000      -0.200376        -5.4525
  92   0.0000      -0.025970        -0.7067
  93   0.0000      -0.021145        -0.5754
  94   0.0000      -0.011289        -0.3072
  95   0.0000       0.025270         0.6876
  96   0.0000       0.034968         0.9515

MULLIKEN ATOMIC CHARGES
-----------------------
   0 C :    0.199364
   1 O :   -0.270399
   2 N :   -0.111532
   3 C :    0.142086
   4 C :    0.087152
   5 O :   -0.292067
   6 N :   -0.200085
   7 C :   -0.147335
   8 C :    0.221413
   9 O :   -0.281851
  10 C :    0.289869
  11 C :   -0.163202
  12 C :   -0.011012
  13 N :    0.007192
  14 C :    0.086304
  15 C :   -0.092508
  16 C :    0.033245
  17 C :    0.034867
  18 C :   -0.026951
  19 C :    0.118163
  20 S :   -0.039891
  21 C :   -0.095130
  22 C :    0.268030
  23 O :   -0.347873
  24 H :    0.006956
  25 H :    0.030815
  26 H :    0.016964
  27 H :    0.024597
  28 H :    0.162333
  29 H :    0.010618
  30 H :   -0.016723
  31 H :   -0.005916
  32 H :    0.140650
  33 H :   -0.059799
  34 H :   -0.030455
  35 H :   -0.037931
  36 H :   -0.081880
  37 H :    0.068414
  38 H :    0.067607
  39 H :    0.083457
  40 H :    0.013788
  41 H :    0.008546
  42 H :    0.190108
Sum of atomic charges:   -0.0000000

LOEWDIN ATOMIC CHARGES
----------------------
   0 C :    0.051170
   1 O :   -0.071737
   2 N :    0.039254
   3 C :   -0.021394
   4 C :    0.113175
   5 O :   -0.251171
   6 N :   -0.032582
   7 C :   -0.131734
   8 C :    0.056460
   9 O :   -0.226197
  10 C :   -0.023215
  11 C :   -0.086707
  12 C :   -0.018638
  13 N :    0.081753
  14 C :   -0.008322
  15 C :   -0.048525
  16 C :   -0.036405
  17 C :   -0.038585
  18 C :   -0.017723
  19 C :   -0.049591
  20 S :    0.265936
  21 C :   -0.157037
  22 C :    0.072399
  23 O :   -0.145089
  24 H :    0.011974
  25 H :    0.017642
  26 H :    0.010889
  27 H :    0.033613
  28 H :    0.098306
  29 H :    0.037900
  30 H :    0.033315
  31 H :    0.020904
  32 H :    0.111763
  33 H :    0.017956
  34 H :    0.024666
  35 H :    0.021033
  36 H :    0.015797
  37 H :    0.030269
  38 H :    0.028261
  39 H :    0.039194
  40 H :    0.018677
  41 H :    0.018593
  42 H :    0.093752

  Mayer bond orders larger than 0.100000
B(  0-C ,  1-O ) :   0.9414 B(  0-C , 24-H ) :   0.9676 B(  0-C , 25-H ) :   0.9726
B(  0-C , 26-H ) :   0.9776 B(  1-O ,  2-N ) :   0.9580 B(  2-N ,  3-C ) :   0.9417
B(  2-N ,  8-C ) :   1.1575 B(  3-C ,  4-C ) :   0.9237 B(  3-C , 22-C ) :   1.0349
B(  3-C , 27-H ) :   0.8528 B(  4-C ,  5-O ) :   2.0191 B(  4-C ,  6-N ) :   1.1907
B(  6-N ,  7-C ) :   0.9391 B(  6-N , 28-H ) :   0.8803 B(  7-C ,  8-C ) :   0.8612
B(  7-C , 10-C ) :   1.0360 B(  7-C , 20-S ) :   1.0038 B(  8-C ,  9-O ) :   1.9933
B( 10-C , 11-C ) :   1.0675 B( 10-C , 29-H ) :   0.8838 B( 10-C , 30-H ) :   0.8773
B( 11-C , 12-C ) :   1.4705 B( 11-C , 19-C ) :   1.2852 B( 12-C , 13-N ) :   1.2016
B( 12-C , 31-H ) :   0.9809 B( 13-N , 14-C ) :   1.2085 B( 13-N , 32-H ) :   0.9168
B( 14-C , 15-C ) :   1.2973 B( 14-C , 19-C ) :   1.2645 B( 15-C , 16-C ) :   1.4021
B( 15-C , 18-C ) :   0.1050 B( 15-C , 33-H ) :   0.9969 B( 16-C , 17-C ) :   1.3057
B( 16-C , 34-H ) :   0.9889 B( 17-C , 18-C ) :   1.4129 B( 17-C , 35-H ) :   0.9876
B( 18-C , 19-C ) :   1.2882 B( 18-C , 36-H ) :   0.9918 B( 20-S , 21-C ) :   0.9887
B( 21-C , 37-H ) :   0.9674 B( 21-C , 38-H ) :   0.9609 B( 21-C , 39-H ) :   0.9529
B( 22-C , 23-O ) :   1.0503 B( 22-C , 40-H ) :   0.9310 B( 22-C , 41-H ) :   0.9335
B( 23-O , 42-H ) :   0.9517

FINAL SINGLE POINT ENERGY     -1482.787024498189

DIPOLE MOMENT
-------------
                                X             Y             Z
Electronic contribution:      3.39400       5.79637      -2.88001
Nuclear contribution   :     -2.43031      -5.20278       2.69083
                        -----------------------------------------
Total Dipole Moment    :      0.96370       0.59359      -0.18918
                        -----------------------------------------
Magnitude (a.u.)       :      1.14754
Magnitude (Debye)      :      2.91681

Rotational constants in cm-1:     0.016268     0.004632     0.004058
Rotational constants in MHz :   487.694212   138.867493   121.641861

                             ****ORCA TERMINATED NORMALLY****
TOTAL RUN TIME: 0 days 0 hours 15 minutes 17 seconds 403 msec
