                         Program Version 5.0.3 -  RELEASE  -
|  1> ! B3LYP DEF2-SVP TightSCF
|  2> %elprop
|  3> Polar 1
|  4> end
|  5> * xyzfile 0 1 _70.xyz
|  6>
|  7>                          ****END OF INPUT****

CARTESIAN COORDINATES (ANGSTROEM)
---------------------------------
  C      2.297957    1.446889   -0.014318
  N      1.216280    0.507213    0.062806
  C      1.343994   -0.892503   -0.125861
  C      2.503479   -1.467443   -0.280093
  C      3.765396   -0.826570   -0.272353
  C      4.310776   -0.270963    0.827614
  C      5.545498    0.304503    0.798644
  C      6.310831    0.355219   -0.353391
  C      5.716989   -0.225055   -1.463716
  C      4.477139   -0.804859   -1.436893
  C      0.113537   -1.725566   -0.080296
  O      0.253746   -2.971269   -0.251192
  N     -1.161299   -1.167003    0.141609
  C     -1.309617    0.182689    0.548042
  C     -0.124144    0.970300    0.289921
  O     -0.279101    2.250284    0.257799
  C     -2.473802    0.888806   -0.107684
  C     -3.783742    0.314869    0.145816
  C     -3.997079   -0.573892    1.155433
  C     -5.263741   -1.073257    1.346850
  C     -6.324834   -0.698745    0.543119
  C     -6.128647    0.198432   -0.481925
  C     -4.843646    0.687029   -0.654306
  O     -4.658273    1.605994   -1.708021
  H      2.648550    1.855577    0.941847
  H      1.751733    2.415137   -0.382528
  H      2.975211    1.383547   -0.854496
  H      2.503835   -2.567756   -0.426629
  H      3.798073   -0.250984    1.806132
  H      6.005831    0.764038    1.689829
  H      7.298459    0.814672   -0.393989
  H      6.318560   -0.186653   -2.384320
  H      4.069805   -1.250897   -2.371605
  H     -1.996738   -1.818552   -0.018735
  H     -1.480707    0.192829    1.662966
  H     -2.385631    1.974106    0.153585
  H     -2.308392    0.850955   -1.224599
  H     -3.191413   -0.884935    1.807514
  H     -5.463724   -1.784340    2.145305
  H     -7.333449   -1.087745    0.682488
  H     -6.922216    0.530064   -1.153687
  H     -3.795484    2.035835   -1.942244

 Total Charge           Charge          ....    0
 Multiplicity           Mult            ....    1
 Number of Electrons    NEL             ....  170
 Basis Dimension        Dim             ....  426

ORBITAL ENERGIES
----------------

  NO   OCC          E(Eh)            E(eV)
   0   2.0000     -19.153781      -521.2009
   1   2.0000     -19.114743      -520.1386
   2   2.0000     -19.103310      -519.8275
   3   2.0000     -14.392003      -391.6263
   4   2.0000     -14.372307      -391.0904
   5   2.0000     -10.308812      -280.5170
   6   2.0000     -10.304573      -280.4017
   7   2.0000     -10.258595      -279.1505
   8   2.0000     -10.248968      -278.8886
   9   2.0000     -10.239301      -278.6255
  10   2.0000     -10.221788      -278.1490
  11   2.0000     -10.204338      -277.6742
  12   2.0000     -10.192160      -277.3428
  13   2.0000     -10.191633      -277.3284
  14   2.0000     -10.191255      -277.3182
  15   2.0000     -10.190709      -277.3033
  16   2.0000     -10.190663      -277.3020
  17   2.0000     -10.189879      -277.2807
  18   2.0000     -10.189421      -277.2682
  19   2.0000     -10.188983      -277.2563
  20   2.0000     -10.188353      -277.2392
  21   2.0000     -10.187077      -277.2044
  22   2.0000     -10.186992      -277.2022
  23   2.0000     -10.183734      -277.1135
  24   2.0000      -1.030263       -28.0349
  25   2.0000      -1.018493       -27.7146
  26   2.0000      -1.007538       -27.4165
  27   2.0000      -0.945448       -25.7269
  28   2.0000      -0.934130       -25.4190
  29   2.0000      -0.875707       -23.8292
  30   2.0000      -0.865677       -23.5563
  31   2.0000      -0.804122       -21.8813
  32   2.0000      -0.801946       -21.8221
  33   2.0000      -0.759662       -20.6715
  34   2.0000      -0.751684       -20.4543
  35   2.0000      -0.748214       -20.3599
  36   2.0000      -0.741617       -20.1804
  37   2.0000      -0.712267       -19.3818
  38   2.0000      -0.673445       -18.3254
  39   2.0000      -0.646951       -17.6044
  40   2.0000      -0.627386       -17.0721
  41   2.0000      -0.612169       -16.6580
  42   2.0000      -0.608474       -16.5574
  43   2.0000      -0.599673       -16.3179
  44   2.0000      -0.586634       -15.9631
  45   2.0000      -0.567444       -15.4409
  46   2.0000      -0.549824       -14.9615
  47   2.0000      -0.534084       -14.5332
  48   2.0000      -0.523330       -14.2405
  49   2.0000      -0.510872       -13.9015
  50   2.0000      -0.506152       -13.7731
  51   2.0000      -0.488396       -13.2899
  52   2.0000      -0.480879       -13.0854
  53   2.0000      -0.474689       -12.9170
  54   2.0000      -0.467249       -12.7145
  55   2.0000      -0.461178       -12.5493
  56   2.0000      -0.448458       -12.2032
  57   2.0000      -0.444173       -12.0866
  58   2.0000      -0.436839       -11.8870
  59   2.0000      -0.431027       -11.7288
  60   2.0000      -0.424691       -11.5564
  61   2.0000      -0.422562       -11.4985
  62   2.0000      -0.421166       -11.4605
  63   2.0000      -0.413758       -11.2589
  64   2.0000      -0.405195       -11.0259
  65   2.0000      -0.397055       -10.8044
  66   2.0000      -0.391898       -10.6641
  67   2.0000      -0.384582       -10.4650
  68   2.0000      -0.379767       -10.3340
  69   2.0000      -0.367436        -9.9984
  70   2.0000      -0.361386        -9.8338
  71   2.0000      -0.357012        -9.7148
  72   2.0000      -0.342795        -9.3279
  73   2.0000      -0.341401        -9.2900
  74   2.0000      -0.340653        -9.2696
  75   2.0000      -0.337821        -9.1926
  76   2.0000      -0.318721        -8.6728
  77   2.0000      -0.277244        -7.5442
  78   2.0000      -0.268261        -7.2998
  79   2.0000      -0.263803        -7.1785
  80   2.0000      -0.262382        -7.1398
  81   2.0000      -0.257781        -7.0146
  82   2.0000      -0.252892        -6.8815
  83   2.0000      -0.229543        -6.2462
  84   2.0000      -0.228403        -6.2151
  85   0.0000      -0.051434        -1.3996
  86   0.0000      -0.029961        -0.8153
  87   0.0000      -0.011215        -0.3052
  88   0.0000      -0.010175        -0.2769
  89   0.0000      -0.006163        -0.1677

MULLIKEN ATOMIC CHARGES
-----------------------
   0 C :    0.149947
   1 N :   -0.257874
   2 C :    0.104201
   3 C :   -0.098986
   4 C :    0.030333
   5 C :    0.047429
   6 C :    0.000697
   7 C :    0.013626
   8 C :    0.010832
   9 C :    0.016645
  10 C :    0.150739
  11 O :   -0.265865
  12 N :   -0.204419
  13 C :    0.156005
  14 C :    0.117612
  15 O :   -0.314408
  16 C :    0.056796
  17 C :   -0.021419
  18 C :   -0.052967
  19 C :    0.040499
  20 C :    0.033454
  21 C :   -0.032431
  22 C :    0.160885
  23 O :   -0.277457
  24 H :    0.035400
  25 H :    0.037921
  26 H :    0.047793
  27 H :    0.039927
  28 H :   -0.025485
  29 H :   -0.019238
  30 H :   -0.017952
  31 H :   -0.019160
  32 H :   -0.016647
  33 H :    0.172371
  34 H :    0.042356
  35 H :    0.065494
  36 H :   -0.008182
  37 H :   -0.031263
  38 H :   -0.028048
  39 H :   -0.017459
  40 H :   -0.021614
  41 H :    0.199911
Sum of atomic charges:   -0.0000000

LOEWDIN ATOMIC CHARGES
----------------------
   0 C :    0.013186
   1 N :   -0.018680
   2 C :   -0.025517
   3 C :   -0.013818
   4 C :   -0.041203
   5 C :   -0.018960
   6 C :   -0.021610
   7 C :   -0.029976
   8 C :   -0.019963
   9 C :   -0.025871
  10 C :    0.097939
  11 O :   -0.240927
  12 N :   -0.034086
  13 C :   -0.001502
  14 C :    0.122834
  15 O :   -0.244523
  16 C :   -0.029101
  17 C :   -0.073777
  18 C :   -0.037797
  19 C :   -0.040489
  20 C :   -0.019248
  21 C :   -0.037960
  22 C :    0.078738
  23 O :   -0.110270
  24 H :    0.030388
  25 H :    0.046892
  26 H :    0.036878
  27 H :    0.055980
  28 H :    0.030207
  29 H :    0.027210
  30 H :    0.029258
  31 H :    0.026294
  32 H :    0.034227
  33 H :    0.115066
  34 H :    0.044879
  35 H :    0.048497
  36 H :    0.026504
  37 H :    0.023397
  38 H :    0.024802
  39 H :    0.029252
  40 H :    0.035662
  41 H :    0.107187

  Mayer bond orders larger than 0.100000
B(  0-C ,  1-N ) :   0.9753 B(  0-C , 24-H ) :   0.9584 B(  0-C , 25-H ) :   0.9176
B(  0-C , 26-H ) :   0.9537 B(  1-N ,  2-C ) :   1.0147 B(  1-N , 14-C ) :   1.1406
B(  2-C ,  3-C ) :   1.8828 B(  2-C , 10-C ) :   0.9155 B(  3-C ,  4-C ) :   0.9460
B(  3-C , 27-H ) :   0.9163 B(  4-C ,  5-C ) :   1.3498 B(  4-C ,  9-C ) :   1.3685
B(  5-C ,  6-C ) :   1.3878 B(  5-C , 28-H ) :   0.9972 B(  6-C ,  7-C ) :   1.3831
B(  6-C , 29-H ) :   0.9823 B(  7-C ,  8-C ) :   1.3765 B(  7-C , 30-H ) :   0.9940
B(  8-C ,  9-C ) :   1.3750 B(  8-C , 31-H ) :   0.9800 B(  9-C , 32-H ) :   0.9991
B( 10-C , 11-O ) :   2.0639 B( 10-C , 12-N ) :   1.1819 B( 12-N , 13-C ) :   0.9913
B( 12-N , 33-H ) :   0.8805 B( 13-C , 14-C ) :   0.9460 B( 13-C , 16-C ) :   1.0937
B( 13-C , 34-H ) :   0.8331 B( 14-C , 15-O ) :   1.9206 B( 16-C , 17-C ) :   0.9942
B( 16-C , 35-H ) :   0.8831 B( 16-C , 36-H ) :   0.9013 B( 17-C , 18-C ) :   1.3752
B( 17-C , 22-C ) :   1.3486 B( 18-C , 19-C ) :   1.3389 B( 18-C , 37-H ) :   0.9926
B( 19-C , 20-C ) :   1.3762 B( 19-C , 38-H ) :   0.9857 B( 20-C , 21-C ) :   1.3584
B( 20-C , 39-H ) :   0.9881 B( 21-C , 22-C ) :   1.3686 B( 21-C , 40-H ) :   0.9935
B( 22-C , 23-O ) :   1.1779 B( 23-O , 41-H ) :   0.9312

FINAL SINGLE POINT ENERGY     -1068.555559385864

DIPOLE MOMENT
-------------
                                X             Y             Z
Electronic contribution:     -4.16406      -3.87663      -0.63815
Nuclear contribution   :      4.68643       4.41966       0.78039
                        -----------------------------------------
Total Dipole Moment    :      0.52237       0.54303       0.14225
                        -----------------------------------------
Magnitude (a.u.)       :      0.76680
Magnitude (Debye)      :      1.94906

Rotational constants in cm-1:     0.024400     0.003377     0.003189
Rotational constants in MHz :   731.483537   101.253415    95.616999

                             ****ORCA TERMINATED NORMALLY****
TOTAL RUN TIME: 0 days 0 hours 13 minutes 14 seconds 741 msec
