                         Program Version 5.0.3 -  RELEASE  -
|  1> ! B3LYP DEF2-SVP TightSCF
|  2> %elprop
|  3> Polar 1
|  4> end
|  5> * xyzfile 0 1 _10.xyz
|  6>
|  7>                          ****END OF INPUT****

CARTESIAN COORDINATES (ANGSTROEM)
---------------------------------
  C      3.706525    0.715639   -0.402662
  C      2.383556    0.058346   -0.148643
  C      1.809870    0.013392    1.036982
  C      0.497377   -0.666832    1.180937
  C     -0.469428   -0.407639    0.076943
  C      0.171065   -0.386160   -1.287727
  C      1.643615   -0.562917   -1.258596
  O      2.289196   -1.212766   -2.130328
  C     -1.451871   -1.531991    0.032019
  C     -1.468198   -2.457847    0.943856
  C     -2.443215   -1.549366   -1.070334
  O     -1.304219    0.717986    0.306424
  C     -0.956102    2.007750    0.498723
  O      0.261352    2.313256    0.483491
  C     -1.956619    3.106806    0.732043
  H      4.157008    0.321612   -1.317487
  H      3.594843    1.799526   -0.469550
  H      4.413363    0.478207    0.433610
  H      2.288803    0.462373    1.875784
  H      0.067784   -0.479608    2.176252
  H      0.781806   -1.772354    1.158669
  H     -0.019244    0.562863   -1.829362
  H     -0.210563   -1.182291   -1.968411
  H     -0.841221   -2.573533    1.812633
  H     -2.221942   -3.257530    0.843412
  H     -2.167313   -2.353765   -1.784488
  H     -2.466033   -0.591456   -1.643244
  H     -3.481752   -1.714139   -0.714505
  H     -2.919025    2.711379    1.072889
  H     -1.551214    3.748515    1.546895
  H     -2.138204    3.682547   -0.186227

 Total Charge           Charge          ....    0
 Multiplicity           Mult            ....    1
 Number of Electrons    NEL             ....  112
 Basis Dimension        Dim             ....  290

ORBITAL ENERGIES
----------------

  NO   OCC          E(Eh)            E(eV)
   0   2.0000     -19.182607      -521.9853
   1   2.0000     -19.113358      -520.1009
   2   2.0000     -19.107487      -519.9411
   3   2.0000     -10.326293      -280.9927
   4   2.0000     -10.267347      -279.3887
   5   2.0000     -10.259029      -279.1624
   6   2.0000     -10.213396      -277.9206
   7   2.0000     -10.196740      -277.4674
   8   2.0000     -10.195460      -277.4326
   9   2.0000     -10.193911      -277.3904
  10   2.0000     -10.191112      -277.3143
  11   2.0000     -10.180417      -277.0232
  12   2.0000     -10.177342      -276.9396
  13   2.0000     -10.170907      -276.7645
  14   2.0000     -10.170833      -276.7624
  15   2.0000      -1.096049       -29.8250
  16   2.0000      -0.991384       -26.9769
  17   2.0000      -0.988549       -26.8998
  18   2.0000      -0.864447       -23.5228
  19   2.0000      -0.811209       -22.0741
  20   2.0000      -0.765531       -20.8312
  21   2.0000      -0.749386       -20.3918
  22   2.0000      -0.739160       -20.1136
  23   2.0000      -0.691045       -18.8043
  24   2.0000      -0.685042       -18.6410
  25   2.0000      -0.637189       -17.3388
  26   2.0000      -0.598198       -16.2778
  27   2.0000      -0.578875       -15.7520
  28   2.0000      -0.531223       -14.4553
  29   2.0000      -0.509814       -13.8727
  30   2.0000      -0.498243       -13.5579
  31   2.0000      -0.493718       -13.4348
  32   2.0000      -0.476225       -12.9587
  33   2.0000      -0.465120       -12.6566
  34   2.0000      -0.455745       -12.4014
  35   2.0000      -0.451508       -12.2862
  36   2.0000      -0.437248       -11.8981
  37   2.0000      -0.424374       -11.5478
  38   2.0000      -0.419819       -11.4238
  39   2.0000      -0.414518       -11.2796
  40   2.0000      -0.411217       -11.1898
  41   2.0000      -0.401430       -10.9235
  42   2.0000      -0.396159       -10.7800
  43   2.0000      -0.391544       -10.6545
  44   2.0000      -0.380558       -10.3555
  45   2.0000      -0.371015       -10.0958
  46   2.0000      -0.367495       -10.0001
  47   2.0000      -0.354348        -9.6423
  48   2.0000      -0.345600        -9.4043
  49   2.0000      -0.338823        -9.2198
  50   2.0000      -0.322132        -8.7657
  51   2.0000      -0.304325        -8.2811
  52   2.0000      -0.272624        -7.4185
  53   2.0000      -0.268985        -7.3195
  54   2.0000      -0.238835        -6.4990
  55   2.0000      -0.230815        -6.2808
  56   0.0000      -0.042281        -1.1505
  57   0.0000      -0.011905        -0.3240
  58   0.0000      -0.000164        -0.0045
  59   0.0000       0.043908         1.1948
  60   0.0000       0.052910         1.4398

MULLIKEN ATOMIC CHARGES
-----------------------
   0 C :    0.100468
   1 C :   -0.088434
   2 C :   -0.041316
   3 C :    0.180226
   4 C :    0.010974
   5 C :    0.226848
   6 C :   -0.027443
   7 O :   -0.244177
   8 C :   -0.143111
   9 C :   -0.015504
  10 C :    0.085542
  11 O :   -0.299958
  12 C :    0.143213
  13 O :   -0.288795
  14 C :    0.054881
  15 H :    0.019157
  16 H :    0.030267
  17 H :    0.009963
  18 H :   -0.042453
  19 H :    0.008331
  20 H :    0.046938
  21 H :    0.036557
  22 H :    0.014323
  23 H :    0.005475
  24 H :   -0.006155
  25 H :    0.038774
  26 H :    0.012320
  27 H :    0.028169
  28 H :    0.024069
  29 H :    0.060767
  30 H :    0.060088
Sum of atomic charges:   -0.0000000

LOEWDIN ATOMIC CHARGES
----------------------
   0 C :   -0.039824
   1 C :   -0.069807
   2 C :    0.010444
   3 C :   -0.033728
   4 C :    0.058381
   5 C :   -0.040825
   6 C :    0.096417
   7 O :   -0.193801
   8 C :   -0.033320
   9 C :   -0.053646
  10 C :   -0.047770
  11 O :   -0.078379
  12 C :    0.112028
  13 O :   -0.227127
  14 C :   -0.064576
  15 H :    0.030125
  16 H :    0.034633
  17 H :    0.032120
  18 H :    0.017974
  19 H :    0.033131
  20 H :    0.056563
  21 H :    0.059151
  22 H :    0.048685
  23 H :    0.018704
  24 H :    0.022236
  25 H :    0.040131
  26 H :    0.027757
  27 H :    0.037287
  28 H :    0.034632
  29 H :    0.057894
  30 H :    0.054511

  Mayer bond orders larger than 0.100000
B(  0-C ,  1-C ) :   1.0820 B(  0-C , 15-H ) :   0.9467 B(  0-C , 16-H ) :   0.9543
B(  0-C , 17-H ) :   0.9564 B(  1-C ,  2-C ) :   1.8092 B(  1-C ,  6-C ) :   0.9952
B(  2-C ,  3-C ) :   1.0133 B(  2-C , 18-H ) :   0.9757 B(  3-C ,  4-C ) :   1.1245
B(  3-C , 19-H ) :   0.9009 B(  3-C , 20-H ) :   0.8736 B(  4-C ,  5-C ) :   1.0036
B(  4-C ,  8-C ) :   0.9273 B(  4-C , 11-O ) :   0.8506 B(  5-C ,  6-C ) :   1.0079
B(  5-C , 21-H ) :   0.8609 B(  5-C , 22-H ) :   0.8848 B(  6-C ,  7-O ) :   2.0791
B(  8-C ,  9-C ) :   2.0398 B(  8-C , 10-C ) :   1.0673 B(  9-C , 23-H ) :   0.9283
B(  9-C , 24-H ) :   0.9307 B( 10-C , 25-H ) :   0.9451 B( 10-C , 26-H ) :   0.9474
B( 10-C , 27-H ) :   0.9511 B( 11-O , 12-C ) :   1.1531 B( 12-C , 13-O ) :   1.9721
B( 12-C , 14-C ) :   1.0519 B( 14-C , 28-H ) :   0.9472 B( 14-C , 29-H ) :   0.9552
B( 14-C , 30-H ) :   0.9478

FINAL SINGLE POINT ENERGY      -691.590354976674

DIPOLE MOMENT
-------------
                                X             Y             Z
Electronic contribution:      3.55532       1.18851      -1.26511
Nuclear contribution   :     -5.04397      -0.77068       2.11213
                        -----------------------------------------
Total Dipole Moment    :     -1.48865       0.41783       0.84701
                        -----------------------------------------
Magnitude (a.u.)       :      1.76298
Magnitude (Debye)      :      4.48114

Rotational constants in cm-1:     0.024422     0.019029     0.013495
Rotational constants in MHz :   732.152512   570.466655   404.559781

                             ****ORCA TERMINATED NORMALLY****
TOTAL RUN TIME: 0 days 0 hours 6 minutes 52 seconds 991 msec
