                         Program Version 5.0.3 -  RELEASE  -
|  1> ! B3LYP DEF2-SVP TightSCF
|  2> %elprop
|  3> Polar 1
|  4> end
|  5> * xyzfile 0 1 _17.xyz
|  6>
|  7>                          ****END OF INPUT****

CARTESIAN COORDINATES (ANGSTROEM)
---------------------------------
  C      4.301832    0.858456    1.143671
  C      5.182498    0.062115    2.097115
  C      6.455818   -0.005399    1.328597
  O      7.533624   -0.405395    1.839517
  O      6.218828    0.433067    0.028959
  C      4.805909    0.421341   -0.213179
  C      4.330849   -0.936957   -0.596599
  C      2.837680   -1.037375   -0.663972
  C      2.154199   -0.748875   -1.826063
  C      0.762003   -0.848348   -1.890148
  C      0.023609   -1.238590   -0.792795
  C      0.698722   -1.529028    0.371798
  C      2.096860   -1.426810    0.428715
  O      0.049168   -1.931833    1.530487
  O     -1.330508   -1.333180   -0.858373
  C     -2.319513   -0.409198   -0.629704
  C     -3.339134   -0.187351   -1.685959
  C     -3.931064    1.209062   -1.431070
  C     -4.562014    1.131746   -0.053550
  C     -3.621460    0.531207    0.961846
  O     -3.047802   -0.654404    0.563298
  C     -4.384584    0.323387    2.204669
  O     -5.015912    1.271739    2.780958
  O     -4.430238   -0.930010    2.779468
  O     -4.803912    2.450903    0.349173
  O     -4.890733    1.520027   -2.371893
  O     -2.925569   -0.328138   -2.982747
  O      0.127026   -0.546809   -3.083103
  H      4.552393    1.927136    1.317993
  H      3.244850    0.640321    1.323099
  H      4.716876   -0.909960    2.242675
  H      5.307631    0.580471    3.075442
  H      4.627036    1.182902   -0.999698
  H      4.791000   -1.189898   -1.579071
  H      4.751042   -1.677374    0.124344
  H      2.726457   -0.440027   -2.698248
  H      2.624918   -1.661006    1.351000
  H     -0.938519   -2.034265    1.565382
  H     -1.820524    0.582343   -0.415241
  H     -4.210923   -0.876785   -1.467989
  H     -3.138929    1.977845   -1.379362
  H     -5.547581    0.624829   -0.075742
  H     -2.849096    1.324918    1.170619
  H     -4.693714   -1.104655    3.747306
  H     -5.760350    2.673880    0.344963
  H     -4.870681    2.432820   -2.703972
  H     -3.176112    0.495522   -3.489889
  H      0.688047   -0.264369   -3.871916

 Total Charge           Charge          ....    0
 Multiplicity           Mult            ....    1
 Number of Electrons    NEL             ....  210
 Basis Dimension        Dim             ....  492

ORBITAL ENERGIES
----------------

  NO   OCC          E(Eh)            E(eV)
   0   2.0000     -19.179925      -521.9123
   1   2.0000     -19.174357      -521.7608
   2   2.0000     -19.167311      -521.5690
   3   2.0000     -19.165980      -521.5328
   4   2.0000     -19.163074      -521.4538
   5   2.0000     -19.162863      -521.4480
   6   2.0000     -19.158481      -521.3288
   7   2.0000     -19.138473      -520.7843
   8   2.0000     -19.132272      -520.6156
   9   2.0000     -19.118813      -520.2494
  10   2.0000     -19.116141      -520.1766
  11   2.0000     -10.329614      -281.0831
  12   2.0000     -10.312971      -280.6302
  13   2.0000     -10.307895      -280.4921
  14   2.0000     -10.269540      -279.4484
  15   2.0000     -10.258154      -279.1386
  16   2.0000     -10.257777      -279.1283
  17   2.0000     -10.254269      -279.0328
  18   2.0000     -10.252086      -278.9734
  19   2.0000     -10.250085      -278.9190
  20   2.0000     -10.249436      -278.9013
  21   2.0000     -10.239111      -278.6204
  22   2.0000     -10.202530      -277.6249
  23   2.0000     -10.201531      -277.5978
  24   2.0000     -10.199133      -277.5325
  25   2.0000     -10.193086      -277.3680
  26   2.0000     -10.186654      -277.1929
  27   2.0000     -10.184414      -277.1320
  28   2.0000      -1.105428       -30.0802
  29   2.0000      -1.081113       -29.4186
  30   2.0000      -1.069679       -29.1075
  31   2.0000      -1.057350       -28.7720
  32   2.0000      -1.051321       -28.6079
  33   2.0000      -1.029228       -28.0067
  34   2.0000      -1.024912       -27.8893
  35   2.0000      -1.020755       -27.7762
  36   2.0000      -1.012678       -27.5564
  37   2.0000      -0.987252       -26.8645
  38   2.0000      -0.970009       -26.3953
  39   2.0000      -0.866510       -23.5789
  40   2.0000      -0.819513       -22.3001
  41   2.0000      -0.800128       -21.7726
  42   2.0000      -0.799496       -21.7554
  43   2.0000      -0.779276       -21.2052
  44   2.0000      -0.741854       -20.1869
  45   2.0000      -0.737929       -20.0801
  46   2.0000      -0.696538       -18.9538
  47   2.0000      -0.674221       -18.3465
  48   2.0000      -0.658350       -17.9146
  49   2.0000      -0.638435       -17.3727
  50   2.0000      -0.632721       -17.2172
  51   2.0000      -0.614355       -16.7175
  52   2.0000      -0.612185       -16.6584
  53   2.0000      -0.601784       -16.3754
  54   2.0000      -0.588088       -16.0027
  55   2.0000      -0.560429       -15.2500
  56   2.0000      -0.554330       -15.0841
  57   2.0000      -0.551369       -15.0035
  58   2.0000      -0.550010       -14.9665
  59   2.0000      -0.534439       -14.5428
  60   2.0000      -0.522307       -14.2127
  61   2.0000      -0.512949       -13.9581
  62   2.0000      -0.510220       -13.8838
  63   2.0000      -0.507107       -13.7991
  64   2.0000      -0.496699       -13.5159
  65   2.0000      -0.495280       -13.4772
  66   2.0000      -0.488086       -13.2815
  67   2.0000      -0.482706       -13.1351
  68   2.0000      -0.470911       -12.8142
  69   2.0000      -0.454309       -12.3624
  70   2.0000      -0.453015       -12.3272
  71   2.0000      -0.446500       -12.1499
  72   2.0000      -0.434907       -11.8344
  73   2.0000      -0.426808       -11.6140
  74   2.0000      -0.422367       -11.4932
  75   2.0000      -0.418934       -11.3998
  76   2.0000      -0.410213       -11.1625
  77   2.0000      -0.407073       -11.0770
  78   2.0000      -0.400256       -10.8915
  79   2.0000      -0.390830       -10.6350
  80   2.0000      -0.388569       -10.5735
  81   2.0000      -0.384552       -10.4642
  82   2.0000      -0.382076       -10.3968
  83   2.0000      -0.371782       -10.1167
  84   2.0000      -0.370268       -10.0755
  85   2.0000      -0.367209        -9.9923
  86   2.0000      -0.360347        -9.8055
  87   2.0000      -0.356915        -9.7122
  88   2.0000      -0.347050        -9.4437
  89   2.0000      -0.344287        -9.3685
  90   2.0000      -0.339614        -9.2414
  91   2.0000      -0.338133        -9.2011
  92   2.0000      -0.337423        -9.1818
  93   2.0000      -0.327241        -8.9047
  94   2.0000      -0.318171        -8.6579
  95   2.0000      -0.317854        -8.6492
  96   2.0000      -0.310714        -8.4550
  97   2.0000      -0.294874        -8.0239
  98   2.0000      -0.291961        -7.9447
  99   2.0000      -0.282172        -7.6783
 100   2.0000      -0.270967        -7.3734
 101   2.0000      -0.259971        -7.0742
 102   2.0000      -0.252424        -6.8688
 103   2.0000      -0.235420        -6.4061
 104   2.0000      -0.225547        -6.1375
 105   0.0000      -0.023898        -0.6503
 106   0.0000      -0.013583        -0.3696
 107   0.0000      -0.004726        -0.1286
 108   0.0000      -0.000003        -0.0001
 109   0.0000       0.015099         0.4109

MULLIKEN ATOMIC CHARGES
-----------------------
   0 C :    0.045494
   1 C :   -0.034090
   2 C :    0.218808
   3 O :   -0.238510
   4 O :   -0.306207
   5 C :    0.066447
   6 C :    0.167090
   7 C :    0.003541
   8 C :   -0.121785
   9 C :    0.176255
  10 C :    0.121877
  11 C :    0.157995
  12 C :   -0.101299
  13 O :   -0.245638
  14 O :   -0.295791
  15 C :    0.372586
  16 C :    0.155026
  17 C :    0.133513
  18 C :    0.049287
  19 C :    0.236576
  20 O :   -0.339346
  21 C :    0.153828
  22 O :   -0.268844
  23 O :   -0.235153
  24 O :   -0.292556
  25 O :   -0.280019
  26 O :   -0.239776
  27 O :   -0.231997
  28 H :    0.017146
  29 H :    0.021935
  30 H :    0.045126
  31 H :    0.049355
  32 H :    0.009268
  33 H :    0.012605
  34 H :    0.008111
  35 H :   -0.067309
  36 H :   -0.046454
  37 H :    0.202487
  38 H :   -0.045283
  39 H :   -0.009755
  40 H :   -0.021312
  41 H :    0.005800
  42 H :    0.028401
  43 H :    0.228863
  44 H :    0.181032
  45 H :    0.184377
  46 H :    0.166303
  47 H :    0.201992
Sum of atomic charges:   -0.0000000

LOEWDIN ATOMIC CHARGES
----------------------
   0 C :   -0.037577
   1 C :   -0.060038
   2 C :    0.124864
   3 O :   -0.196833
   4 O :   -0.108472
   5 C :    0.074744
   6 C :   -0.027702
   7 C :   -0.019304
   8 C :   -0.091845
   9 C :    0.056946
  10 C :   -0.022698
  11 C :    0.063139
  12 C :   -0.071682
  13 O :   -0.090115
  14 O :   -0.077791
  15 C :    0.131697
  16 C :    0.009426
  17 C :    0.022339
  18 C :    0.040157
  19 C :    0.013980
  20 O :   -0.132470
  21 C :    0.126638
  22 O :   -0.230625
  23 O :   -0.091119
  24 O :   -0.121361
  25 O :   -0.102630
  26 O :   -0.105421
  27 O :   -0.087910
  28 H :    0.029533
  29 H :    0.026466
  30 H :    0.037429
  31 H :    0.050172
  32 H :    0.024514
  33 H :    0.038264
  34 H :    0.036908
  35 H :    0.018518
  36 H :    0.026250
  37 H :    0.110655
  38 H :   -0.009300
  39 H :    0.013785
  40 H :    0.007586
  41 H :    0.022170
  42 H :    0.040167
  43 H :    0.140523
  44 H :    0.094845
  45 H :    0.094094
  46 H :    0.087856
  47 H :    0.121225

  Mayer bond orders larger than 0.100000
B(  0-C ,  1-C ) :   1.0664 B(  0-C ,  5-C ) :   1.0593 B(  0-C , 28-H ) :   0.9317
B(  0-C , 29-H ) :   0.9242 B(  1-C ,  2-C ) :   0.9839 B(  1-C , 30-H ) :   0.9268
B(  1-C , 31-H ) :   0.9268 B(  2-C ,  3-O ) :   2.1233 B(  2-C ,  4-O ) :   1.0964
B(  4-O ,  5-C ) :   0.9234 B(  5-C ,  6-C ) :   1.0507 B(  5-C , 32-H ) :   0.9266
B(  6-C ,  7-C ) :   1.0251 B(  6-C , 33-H ) :   0.9055 B(  6-C , 34-H ) :   0.9059
B(  7-C ,  8-C ) :   1.3345 B(  7-C , 12-C ) :   1.3426 B(  8-C ,  9-C ) :   1.2845
B(  8-C , 35-H ) :   1.0035 B(  9-C , 10-C ) :   1.3455 B(  9-C , 27-O ) :   1.1987
B( 10-C , 11-C ) :   1.3325 B( 10-C , 14-O ) :   1.0523 B( 11-C , 12-C ) :   1.3015
B( 11-C , 13-O ) :   1.2395 B( 12-C , 36-H ) :   1.0060 B( 13-O , 37-H ) :   0.9196
B( 14-O , 15-C ) :   1.0587 B( 15-C , 16-C ) :   0.9512 B( 15-C , 20-O ) :   0.9513
B( 15-C , 38-H ) :   0.8785 B( 16-C , 17-C ) :   0.9683 B( 16-C , 26-O ) :   1.1987
B( 16-C , 39-H ) :   0.8892 B( 17-C , 18-C ) :   0.9995 B( 17-C , 25-O ) :   1.1010
B( 17-C , 40-H ) :   0.8993 B( 18-C , 19-C ) :   0.9738 B( 18-C , 24-O ) :   1.0763
B( 18-C , 41-H ) :   0.9129 B( 19-C , 20-O ) :   1.0331 B( 19-C , 21-C ) :   0.9085
B( 19-C , 42-H ) :   0.8575 B( 21-C , 22-O ) :   2.0550 B( 21-C , 23-O ) :   1.2376
B( 23-O , 43-H ) :   0.9043 B( 24-O , 44-H ) :   0.9605 B( 25-O , 45-H ) :   0.9604
B( 26-O , 46-H ) :   0.9507 B( 27-O , 47-H ) :   0.9310

FINAL SINGLE POINT ENERGY     -1485.321205340494

DIPOLE MOMENT
-------------
                                X             Y             Z
Electronic contribution:     -5.80093      -5.02172       0.70844
Nuclear contribution   :      3.66771       6.32741      -1.87264
                        -----------------------------------------
Total Dipole Moment    :     -2.13322       1.30569      -1.16420
                        -----------------------------------------
Magnitude (a.u.)       :      2.75878
Magnitude (Debye)      :      7.01225

Rotational constants in cm-1:     0.010764     0.002442     0.002211
Rotational constants in MHz :   322.704993    73.214925    66.282323

                             ****ORCA TERMINATED NORMALLY****
TOTAL RUN TIME: 0 days 0 hours 22 minutes 46 seconds 187 msec
