                         Program Version 5.0.3 -  RELEASE  -
|  1> ! B3LYP DEF2-SVP TightSCF
|  2> %elprop
|  3> Polar 1
|  4> end
|  5> * xyzfile 0 1 _93.xyz
|  6>
|  7>                          ****END OF INPUT****

CARTESIAN COORDINATES (ANGSTROEM)
---------------------------------
  C     -1.156129    0.178095    5.105467
  C     -0.720122    0.261338    3.694132
  C     -1.699431    0.184313    2.705779
  C     -1.319641    0.259390    1.378120
  C     -0.012438    0.407144    0.996888
  C      0.955437    0.482475    2.003831
  C      0.593801    0.409422    3.327001
  C      0.397267    0.487579   -0.414306
  O     -0.680024    0.396575   -1.272399
  C     -1.994229    0.249528   -0.946451
  C     -3.002258    0.168744   -1.912872
  C     -4.329243    0.020276   -1.584821
  C     -4.716917   -0.055092   -0.273235
  C     -3.734227    0.022742    0.703774
  C     -2.404747    0.171455    0.376179
  O     -6.068991   -0.207198    0.092495
  O     -5.307223   -0.057050   -2.562990
  C     -4.970757    0.014362   -3.929447
  C      0.988144    1.889430   -0.609884
  C      1.424386   -0.544910   -0.748972
  C      2.715231   -0.292256   -0.759073
  C      3.717182   -1.321309   -1.091323
  C      4.995886   -1.057278   -1.097644
  C      5.465275    0.303332   -0.765330
  C      5.968298   -2.111726   -1.434897
  H     -0.302059    0.337799    5.777028
  H     -1.549147   -0.855972    5.325082
  H     -1.950763    0.931832    5.315268
  H     -2.725142    0.068411    3.004028
  H      1.984677    0.598749    1.706198
  H      1.327520    0.465327    4.135811
  H     -2.667538    0.231256   -2.947610
  H     -4.039042   -0.036519    1.735611
  H     -6.767364   -0.261614   -0.636030
  H     -4.250914    0.869681   -4.069280
  H     -4.458530   -0.913714   -4.243187
  H     -5.864658    0.235015   -4.551544
  H      1.574960    1.938968   -1.556290
  H      1.626223    2.193894    0.215550
  H      0.169920    2.629542   -0.723737
  H      1.071442   -1.535930   -0.990290
  H      3.013028    0.720952   -0.508574
  H      3.325132   -2.312296   -1.330362
  H      5.199059    0.525718    0.285003
  H      6.565419    0.382073   -0.929504
  H      4.952840    0.995653   -1.489418
  H      6.983472   -1.693494   -1.495699
  H      5.728977   -2.632972   -2.398294
  H      5.947955   -2.854076   -0.609782

 Total Charge           Charge          ....    0
 Multiplicity           Mult            ....    1
 Number of Electrons    NEL             ....  180
 Basis Dimension        Dim             ....  470

ORBITAL ENERGIES
----------------

  NO   OCC          E(Eh)            E(eV)
   0   2.0000     -19.159541      -521.3576
   1   2.0000     -19.149653      -521.0885
   2   2.0000     -19.141106      -520.8560
   3   2.0000     -10.247342      -278.8444
   4   2.0000     -10.247190      -278.8402
   5   2.0000     -10.237526      -278.5773
   6   2.0000     -10.237484      -278.5761
   7   2.0000     -10.231642      -278.4171
   8   2.0000     -10.184660      -277.1387
   9   2.0000     -10.182404      -277.0773
  10   2.0000     -10.181529      -277.0535
  11   2.0000     -10.181275      -277.0466
  12   2.0000     -10.179085      -276.9870
  13   2.0000     -10.178885      -276.9815
  14   2.0000     -10.178131      -276.9610
  15   2.0000     -10.177655      -276.9481
  16   2.0000     -10.176208      -276.9087
  17   2.0000     -10.175799      -276.8976
  18   2.0000     -10.175732      -276.8957
  19   2.0000     -10.175074      -276.8778
  20   2.0000     -10.173612      -276.8381
  21   2.0000     -10.173295      -276.8294
  22   2.0000     -10.172046      -276.7954
  23   2.0000     -10.169240      -276.7191
  24   2.0000     -10.164957      -276.6025
  25   2.0000      -1.061661       -28.8893
  26   2.0000      -1.049741       -28.5649
  27   2.0000      -0.997539       -27.1444
  28   2.0000      -0.864065       -23.5124
  29   2.0000      -0.853194       -23.2166
  30   2.0000      -0.825927       -22.4746
  31   2.0000      -0.808172       -21.9915
  32   2.0000      -0.778657       -21.1883
  33   2.0000      -0.757760       -20.6197
  34   2.0000      -0.746266       -20.3069
  35   2.0000      -0.724379       -19.7114
  36   2.0000      -0.717415       -19.5219
  37   2.0000      -0.689014       -18.7490
  38   2.0000      -0.684868       -18.6362
  39   2.0000      -0.675460       -18.3802
  40   2.0000      -0.669145       -18.2084
  41   2.0000      -0.641909       -17.4672
  42   2.0000      -0.619474       -16.8567
  43   2.0000      -0.602513       -16.3952
  44   2.0000      -0.586228       -15.9521
  45   2.0000      -0.563270       -15.3274
  46   2.0000      -0.552719       -15.0402
  47   2.0000      -0.544651       -14.8207
  48   2.0000      -0.527675       -14.3588
  49   2.0000      -0.518808       -14.1175
  50   2.0000      -0.506587       -13.7849
  51   2.0000      -0.482502       -13.1296
  52   2.0000      -0.478444       -13.0191
  53   2.0000      -0.469566       -12.7775
  54   2.0000      -0.468787       -12.7564
  55   2.0000      -0.458358       -12.4726
  56   2.0000      -0.446873       -12.1600
  57   2.0000      -0.446402       -12.1472
  58   2.0000      -0.441808       -12.0222
  59   2.0000      -0.437801       -11.9132
  60   2.0000      -0.434333       -11.8188
  61   2.0000      -0.425596       -11.5810
  62   2.0000      -0.419647       -11.4192
  63   2.0000      -0.417051       -11.3485
  64   2.0000      -0.407949       -11.1009
  65   2.0000      -0.402902       -10.9635
  66   2.0000      -0.395671       -10.7668
  67   2.0000      -0.392838       -10.6897
  68   2.0000      -0.384887       -10.4733
  69   2.0000      -0.378559       -10.3011
  70   2.0000      -0.375228       -10.2105
  71   2.0000      -0.370149       -10.0723
  72   2.0000      -0.366851        -9.9825
  73   2.0000      -0.361728        -9.8431
  74   2.0000      -0.359809        -9.7909
  75   2.0000      -0.354803        -9.6547
  76   2.0000      -0.350132        -9.5276
  77   2.0000      -0.338786        -9.2188
  78   2.0000      -0.334206        -9.0942
  79   2.0000      -0.331837        -9.0297
  80   2.0000      -0.327180        -8.9030
  81   2.0000      -0.325777        -8.8648
  82   2.0000      -0.307910        -8.3786
  83   2.0000      -0.295309        -8.0358
  84   2.0000      -0.291912        -7.9433
  85   2.0000      -0.258105        -7.0234
  86   2.0000      -0.236196        -6.4272
  87   2.0000      -0.223361        -6.0780
  88   2.0000      -0.211503        -5.7553
  89   2.0000      -0.185419        -5.0455
  90   0.0000      -0.026264        -0.7147
  91   0.0000      -0.019295        -0.5250
  92   0.0000      -0.001863        -0.0507
  93   0.0000       0.019533         0.5315
  94   0.0000       0.053155         1.4464

MULLIKEN ATOMIC CHARGES
-----------------------
   0 C :    0.079276
   1 C :   -0.022107
   2 C :   -0.110188
   3 C :    0.170646
   4 C :   -0.005751
   5 C :   -0.021840
   6 C :    0.000153
   7 C :    0.073384
   8 O :   -0.305104
   9 C :    0.186959
  10 C :   -0.202526
  11 C :    0.249422
  12 C :    0.171524
  13 C :   -0.132052
  14 C :    0.054181
  15 O :   -0.270134
  16 O :   -0.360482
  17 C :    0.180158
  18 C :    0.126159
  19 C :   -0.004143
  20 C :    0.023962
  21 C :    0.026177
  22 C :   -0.249131
  23 C :    0.107580
  24 C :    0.080558
  25 H :   -0.003014
  26 H :    0.030308
  27 H :    0.028564
  28 H :   -0.059021
  29 H :   -0.046711
  30 H :   -0.046799
  31 H :   -0.048421
  32 H :   -0.047345
  33 H :    0.204588
  34 H :    0.024075
  35 H :    0.021843
  36 H :    0.037005
  37 H :    0.009124
  38 H :    0.003028
  39 H :    0.007718
  40 H :   -0.030985
  41 H :   -0.022450
  42 H :   -0.043503
  43 H :    0.033599
  44 H :    0.003371
  45 H :    0.038905
  46 H :   -0.002882
  47 H :    0.031748
  48 H :    0.030574
Sum of atomic charges:   -0.0000000

LOEWDIN ATOMIC CHARGES
----------------------
   0 C :   -0.046921
   1 C :   -0.026778
   2 C :   -0.018863
   3 C :   -0.011366
   4 C :   -0.028692
   5 C :   -0.008389
   6 C :   -0.037971
   7 C :    0.037828
   8 O :   -0.073834
   9 C :    0.057236
  10 C :   -0.089628
  11 C :    0.029147
  12 C :    0.034081
  13 C :   -0.033031
  14 C :   -0.061511
  15 O :   -0.121971
  16 O :   -0.132365
  17 C :    0.078107
  18 C :   -0.041379
  19 C :   -0.015753
  20 C :   -0.029246
  21 C :   -0.052657
  22 C :   -0.045454
  23 C :   -0.049556
  24 C :   -0.048332
  25 H :    0.023283
  26 H :    0.039133
  27 H :    0.035744
  28 H :    0.020117
  29 H :    0.020209
  30 H :    0.022115
  31 H :    0.029244
  32 H :    0.029739
  33 H :    0.118939
  34 H :    0.015831
  35 H :    0.014101
  36 H :    0.027313
  37 H :    0.024157
  38 H :    0.020814
  39 H :    0.030184
  40 H :    0.020717
  41 H :    0.021979
  42 H :    0.021378
  43 H :    0.036370
  44 H :    0.024919
  45 H :    0.041771
  46 H :    0.021848
  47 H :    0.037767
  48 H :    0.039627

  Mayer bond orders larger than 0.100000
B(  0-C ,  1-C ) :   1.0574 B(  0-C , 25-H ) :   0.9534 B(  0-C , 26-H ) :   0.9505
B(  0-C , 27-H ) :   0.9548 B(  1-C ,  2-C ) :   1.3694 B(  1-C ,  6-C ) :   1.3848
B(  2-C ,  3-C ) :   1.3072 B(  2-C , 28-H ) :   1.0001 B(  3-C ,  4-C ) :   1.4120
B(  3-C , 14-C ) :   1.0256 B(  4-C ,  5-C ) :   1.3523 B(  4-C ,  7-C ) :   0.9435
B(  5-C ,  6-C ) :   1.3471 B(  5-C , 29-H ) :   0.9814 B(  6-C , 30-H ) :   0.9843
B(  7-C ,  8-O ) :   0.9304 B(  7-C , 18-C ) :   1.0974 B(  7-C , 19-C ) :   0.9427
B(  8-O ,  9-C ) :   1.1154 B(  9-C , 10-C ) :   1.2945 B(  9-C , 14-C ) :   1.3259
B( 10-C , 11-C ) :   1.2380 B( 10-C , 13-C ) :   0.1090 B( 10-C , 31-H ) :   1.0041
B( 11-C , 12-C ) :   1.3422 B( 11-C , 16-O ) :   1.0893 B( 12-C , 13-C ) :   1.3234
B( 12-C , 15-O ) :   1.2315 B( 13-C , 14-C ) :   1.2837 B( 13-C , 32-H ) :   1.0067
B( 15-O , 33-H ) :   0.9247 B( 16-O , 17-C ) :   0.9661 B( 17-C , 34-H ) :   0.9610
B( 17-C , 35-H ) :   0.9702 B( 17-C , 36-H ) :   0.9728 B( 18-C , 37-H ) :   0.9395
B( 18-C , 38-H ) :   0.9387 B( 18-C , 39-H ) :   0.9435 B( 19-C , 20-C ) :   1.7964
B( 19-C , 40-H ) :   0.9898 B( 20-C , 21-C ) :   1.0551 B( 20-C , 41-H ) :   0.9323
B( 21-C , 22-C ) :   1.7904 B( 21-C , 42-H ) :   0.9906 B( 22-C , 23-C ) :   1.0930
B( 22-C , 24-C ) :   1.0643 B( 23-C , 43-H ) :   0.9427 B( 23-C , 44-H ) :   0.9455
B( 23-C , 45-H ) :   0.9397 B( 24-C , 46-H ) :   0.9493 B( 24-C , 47-H ) :   0.9600
B( 24-C , 48-H ) :   0.9562

FINAL SINGLE POINT ENERGY     -1076.939830050954

DIPOLE MOMENT
-------------
                                X             Y             Z
Electronic contribution:    -27.50490       0.24361       0.14747
Nuclear contribution   :     28.01103      -0.21772      -0.69693
                        -----------------------------------------
Total Dipole Moment    :      0.50614       0.02589      -0.54946
                        -----------------------------------------
Magnitude (a.u.)       :      0.74750
Magnitude (Debye)      :      1.90000

Rotational constants in cm-1:     0.010222     0.004047     0.003075
Rotational constants in MHz :   306.437078   121.323389    92.201100

                             ****ORCA TERMINATED NORMALLY****
TOTAL RUN TIME: 0 days 0 hours 17 minutes 30 seconds 749 msec
