                         Program Version 5.0.3 -  RELEASE  -
|  1> ! B3LYP DEF2-SVP TightSCF
|  2> %elprop
|  3> Polar 1
|  4> end
|  5> * xyzfile 0 1 _85.xyz
|  6>
|  7>                          ****END OF INPUT****

CARTESIAN COORDINATES (ANGSTROEM)
---------------------------------
  C      5.148175   -0.828381   -0.540827
  C      3.657269   -0.882687   -0.812696
  C      2.963861   -0.014618    0.171508
  C      1.451099   -0.038339    0.079084
  C      0.769921    0.956931    0.945130
  C     -0.087154    1.959286    0.165662
  C     -1.336977    1.982899   -0.113259
  C     -2.496994    1.060945    0.194049
  C     -2.377078   -0.299247   -0.591072
  C     -1.118923   -0.714404   -0.163594
  C     -0.310558   -1.800485    0.218503
  C      1.013109   -1.473027    0.355882
  C      1.665444   -2.695047    0.806137
  O      2.888691   -2.869243    1.080263
  O      0.701199   -3.691891    0.905371
  C     -0.515787   -3.193020    0.557060
  O     -1.649911   -3.764403    0.511400
  C     -3.509740   -1.185187   -0.096254
  C     -4.837500   -0.510356   -0.371997
  C     -1.632136    3.203529   -0.926004
  O     -2.760848    3.583152   -1.398264
  N     -0.449128    3.947346   -1.133215
  C      0.504852    3.164190   -0.450308
  O      1.734790    3.547301   -0.427013
  H      5.381068   -1.778579    0.023385
  H      5.385383   -0.011658    0.156186
  H      5.753659   -0.818779   -1.461665
  H      3.298663   -1.853651   -1.040967
  H      3.594847   -0.293596   -1.843882
  H      3.244943    1.053326   -0.076507
  H      3.312930   -0.148346    1.216816
  H      1.305738    0.243904   -0.982670
  H      0.388059    0.690606    1.919642
  H      1.654169    1.561093    1.360968
  H     -2.433656    0.708957    1.271143
  H     -3.476644    1.463928    0.088844
  H     -2.545281   -0.043187   -1.663470
  H     -0.484087   -0.138750   -0.854745
  H     -1.209492   -0.259736    0.919979
  H     -3.381646   -1.466364    0.961569
  H     -3.456620   -2.129340   -0.697001
  H     -4.763748    0.045793   -1.319221
  H     -5.629814   -1.293296   -0.395518
  H     -5.038479    0.170079    0.496605
  H     -0.315668    4.852351   -1.661255

 Total Charge           Charge          ....    0
 Multiplicity           Mult            ....    1
 Number of Electrons    NEL             ....  176
 Basis Dimension        Dim             ....  441

ORBITAL ENERGIES
----------------

  NO   OCC          E(Eh)            E(eV)
   0   2.0000     -19.222629      -523.0743
   1   2.0000     -19.162054      -521.4260
   2   2.0000     -19.156889      -521.2855
   3   2.0000     -19.143889      -520.9317
   4   2.0000     -19.142208      -520.8860
   5   2.0000     -14.398299      -391.7976
   6   2.0000     -10.353631      -281.7366
   7   2.0000     -10.352679      -281.7107
   8   2.0000     -10.328475      -281.0521
   9   2.0000     -10.327812      -281.0341
  10   2.0000     -10.242826      -278.7215
  11   2.0000     -10.241486      -278.6850
  12   2.0000     -10.241187      -278.6769
  13   2.0000     -10.231663      -278.4177
  14   2.0000     -10.228561      -278.3333
  15   2.0000     -10.228190      -278.3232
  16   2.0000     -10.220417      -278.1117
  17   2.0000     -10.214606      -277.9535
  18   2.0000     -10.209295      -277.8090
  19   2.0000     -10.189726      -277.2765
  20   2.0000     -10.188300      -277.2377
  21   2.0000     -10.187972      -277.2288
  22   2.0000     -10.181087      -277.0415
  23   2.0000     -10.171709      -276.7863
  24   2.0000      -1.148006       -31.2388
  25   2.0000      -1.049200       -28.5502
  26   2.0000      -1.036927       -28.2162
  27   2.0000      -1.014622       -27.6093
  28   2.0000      -1.013395       -27.5759
  29   2.0000      -0.948106       -25.7993
  30   2.0000      -0.908480       -24.7210
  31   2.0000      -0.865555       -23.5530
  32   2.0000      -0.855107       -23.2687
  33   2.0000      -0.814412       -22.1613
  34   2.0000      -0.775440       -21.1008
  35   2.0000      -0.761667       -20.7260
  36   2.0000      -0.741813       -20.1858
  37   2.0000      -0.709279       -19.3005
  38   2.0000      -0.699383       -19.0312
  39   2.0000      -0.674541       -18.3552
  40   2.0000      -0.647676       -17.6241
  41   2.0000      -0.645045       -17.5526
  42   2.0000      -0.628236       -17.0952
  43   2.0000      -0.606630       -16.5072
  44   2.0000      -0.595370       -16.2008
  45   2.0000      -0.583704       -15.8834
  46   2.0000      -0.577659       -15.7189
  47   2.0000      -0.562875       -15.3166
  48   2.0000      -0.538476       -14.6527
  49   2.0000      -0.528875       -14.3914
  50   2.0000      -0.516047       -14.0424
  51   2.0000      -0.502296       -13.6682
  52   2.0000      -0.491576       -13.3765
  53   2.0000      -0.485508       -13.2113
  54   2.0000      -0.478630       -13.0242
  55   2.0000      -0.471570       -12.8321
  56   2.0000      -0.466572       -12.6961
  57   2.0000      -0.458812       -12.4849
  58   2.0000      -0.453491       -12.3401
  59   2.0000      -0.448371       -12.2008
  60   2.0000      -0.445734       -12.1290
  61   2.0000      -0.439255       -11.9527
  62   2.0000      -0.432479       -11.7684
  63   2.0000      -0.426733       -11.6120
  64   2.0000      -0.414606       -11.2820
  65   2.0000      -0.409580       -11.1452
  66   2.0000      -0.408936       -11.1277
  67   2.0000      -0.403056       -10.9677
  68   2.0000      -0.392496       -10.6804
  69   2.0000      -0.391346       -10.6491
  70   2.0000      -0.383651       -10.4397
  71   2.0000      -0.378075       -10.2879
  72   2.0000      -0.366301        -9.9676
  73   2.0000      -0.363365        -9.8877
  74   2.0000      -0.357399        -9.7253
  75   2.0000      -0.354589        -9.6488
  76   2.0000      -0.344616        -9.3775
  77   2.0000      -0.338016        -9.1979
  78   2.0000      -0.329018        -8.9530
  79   2.0000      -0.318605        -8.6697
  80   2.0000      -0.311152        -8.4669
  81   2.0000      -0.304980        -8.2989
  82   2.0000      -0.299743        -8.1564
  83   2.0000      -0.297946        -8.1075
  84   2.0000      -0.297254        -8.0887
  85   2.0000      -0.295726        -8.0471
  86   2.0000      -0.280764        -7.6400
  87   2.0000      -0.273628        -7.4458
  88   0.0000      -0.125335        -3.4105
  89   0.0000      -0.112386        -3.0582
  90   0.0000       0.004740         0.1290
  91   0.0000       0.014490         0.3943
  92   0.0000       0.018271         0.4972

MULLIKEN ATOMIC CHARGES
-----------------------
   0 C :    0.014170
   1 C :   -0.009332
   2 C :    0.007279
   3 C :    0.005392
   4 C :    0.186318
   5 C :   -0.131210
   6 C :   -0.144176
   7 C :    0.164572
   8 C :   -0.150230
   9 C :    0.104643
  10 C :   -0.118353
  11 C :   -0.125005
  12 C :    0.257536
  13 O :   -0.198954
  14 O :   -0.225925
  15 C :    0.270597
  16 O :   -0.200240
  17 C :    0.027045
  18 C :    0.018967
  19 C :    0.184252
  20 O :   -0.227797
  21 N :   -0.148896
  22 C :    0.176346
  23 O :   -0.240829
  24 H :    0.022446
  25 H :    0.008284
  26 H :    0.012682
  27 H :    0.004144
  28 H :   -0.009790
  29 H :    0.020317
  30 H :    0.010429
  31 H :    0.026738
  32 H :    0.018476
  33 H :    0.013492
  34 H :    0.005154
  35 H :    0.000565
  36 H :    0.014255
  37 H :    0.046306
  38 H :    0.053304
  39 H :   -0.006090
  40 H :    0.021732
  41 H :    0.022655
  42 H :    0.017898
  43 H :    0.025014
  44 H :    0.175818
Sum of atomic charges:    0.0000000

LOEWDIN ATOMIC CHARGES
----------------------
   0 C :   -0.051460
   1 C :   -0.040891
   2 C :   -0.036033
   3 C :   -0.022671
   4 C :   -0.018945
   5 C :   -0.039887
   6 C :   -0.030595
   7 C :   -0.000688
   8 C :   -0.021757
   9 C :   -0.042339
  10 C :   -0.020943
  11 C :   -0.052308
  12 C :    0.137587
  13 O :   -0.155756
  14 O :   -0.050309
  15 C :    0.126237
  16 O :   -0.160728
  17 C :   -0.031571
  18 C :   -0.055284
  19 C :    0.117294
  20 O :   -0.208713
  21 N :   -0.014736
  22 C :    0.117956
  23 O :   -0.217832
  24 H :    0.031601
  25 H :    0.022680
  26 H :    0.021451
  27 H :    0.008405
  28 H :    0.020913
  29 H :    0.031714
  30 H :    0.019141
  31 H :    0.043081
  32 H :    0.036746
  33 H :    0.056954
  34 H :    0.035380
  35 H :    0.024998
  36 H :    0.030817
  37 H :    0.052226
  38 H :    0.081305
  39 H :    0.019009
  40 H :    0.029138
  41 H :    0.025390
  42 H :    0.028993
  43 H :    0.025079
  44 H :    0.129355

  Mayer bond orders larger than 0.100000
B(  0-C ,  1-C ) :   1.0984 B(  0-C , 24-H ) :   0.9652 B(  0-C , 25-H ) :   0.9643
B(  0-C , 26-H ) :   0.9693 B(  1-C ,  2-C ) :   1.0880 B(  1-C , 27-H ) :   0.9553
B(  1-C , 28-H ) :   0.9298 B(  2-C ,  3-C ) :   1.0626 B(  2-C , 29-H ) :   0.9104
B(  2-C , 30-H ) :   0.9258 B(  3-C ,  4-C ) :   1.0133 B(  3-C , 11-C ) :   1.0111
B(  3-C , 31-H ) :   0.8693 B(  4-C ,  5-C ) :   1.0746 B(  4-C , 32-H ) :   0.9046
B(  4-C , 33-H ) :   0.8625 B(  5-C ,  6-C ) :   1.7418 B(  5-C , 22-C ) :   0.9582
B(  6-C ,  7-C ) :   1.0727 B(  6-C , 19-C ) :   0.9310 B(  7-C ,  8-C ) :   1.0196
B(  7-C , 34-H ) :   0.8880 B(  7-C , 35-H ) :   0.8954 B(  8-C ,  9-C ) :   0.9953
B(  8-C , 17-C ) :   1.0809 B(  8-C , 36-H ) :   0.9069 B(  9-C , 10-C ) :   1.1173
B(  9-C , 37-H ) :   0.8800 B(  9-C , 38-H ) :   0.8249 B( 10-C , 11-C ) :   1.6199
B( 10-C , 15-C ) :   0.9329 B( 11-C , 12-C ) :   0.9948 B( 12-C , 13-O ) :   2.0728
B( 12-C , 14-O ) :   1.0171 B( 14-O , 15-C ) :   1.0885 B( 15-C , 16-O ) :   2.1021
B( 17-C , 18-C ) :   1.0985 B( 17-C , 39-H ) :   0.9313 B( 17-C , 40-H ) :   0.9308
B( 18-C , 41-H ) :   0.9615 B( 18-C , 42-H ) :   0.9566 B( 18-C , 43-H ) :   0.9602
B( 19-C , 20-O ) :   2.1006 B( 19-C , 21-N ) :   1.0799 B( 21-N , 22-C ) :   1.0907
B( 21-N , 44-H ) :   0.9044 B( 22-C , 23-O ) :   2.0623

FINAL SINGLE POINT ENERGY     -1127.787948002860

DIPOLE MOMENT
-------------
                                X             Y             Z
Electronic contribution:     -1.37539      -0.08485       2.30435
Nuclear contribution   :      0.77898       1.14963      -2.42430
                        -----------------------------------------
Total Dipole Moment    :     -0.59641       1.06477      -0.11995
                        -----------------------------------------
Magnitude (a.u.)       :      1.22631
Magnitude (Debye)      :      3.11703

Rotational constants in cm-1:     0.009667     0.007059     0.004270
Rotational constants in MHz :   289.824118   211.633476   128.002250

                             ****ORCA TERMINATED NORMALLY****
TOTAL RUN TIME: 0 days 0 hours 16 minutes 55 seconds 64 msec
