                         Program Version 5.0.3 -  RELEASE  -
|  1> ! B3LYP DEF2-SVP TightSCF
|  2> %elprop
|  3> Polar 1
|  4> end
|  5> * xyzfile 0 1 _18.xyz
|  6>
|  7>                          ****END OF INPUT****

CARTESIAN COORDINATES (ANGSTROEM)
---------------------------------
  C      4.114654    0.743623    0.601003
  N      3.219560    0.961798   -0.490685
  C      2.849319   -0.229944   -1.206586
  C      1.990773   -1.159023   -0.390175
  C      0.716216   -0.516280    0.020917
  C     -0.312359   -0.312945   -0.891884
  C     -1.506958    0.282732   -0.555267
  C     -1.645823    0.684067    0.775333
  C     -0.638739    0.490310    1.691081
  C      0.553784   -0.110733    1.329821
  O     -2.807011    1.284951    1.185946
  S     -4.151089    0.474067    1.795914
  O     -5.251628    1.509307    1.977084
  O     -3.900062   -0.139516    3.137821
  O     -4.732712   -0.701214    0.768766
  O     -2.546799    0.492722   -1.461777
  C     -2.508914    0.126983   -2.819517
  O      1.699855   -2.267354   -1.186279
  H      4.159474   -0.287747    0.969334
  H      3.916532    1.494679    1.417628
  H      5.154526    1.007366    0.250110
  H      3.635865    1.658537   -1.152527
  H      2.297421    0.085424   -2.113192
  H      3.772829   -0.726671   -1.557636
  H      2.541589   -1.548416    0.485664
  H     -0.168025   -0.639132   -1.914127
  H     -0.727126    0.796370    2.731830
  H      1.364443   -0.280093    2.013502
  H     -5.325803   -0.329402    0.043704
  H     -3.137316   -0.770178   -3.037248
  H     -1.506057    0.050507   -3.247109
  H     -2.986419    0.997305   -3.367133
  H      1.865999   -3.122098   -0.724784

 Total Charge           Charge          ....    0
 Multiplicity           Mult            ....    1
 Number of Electrons    NEL             ....  146
 Basis Dimension        Dim             ....  331

ORBITAL ENERGIES
----------------

  NO   OCC          E(Eh)            E(eV)
   0   2.0000     -89.114447     -2424.9274
   1   2.0000     -19.208647      -522.6939
   2   2.0000     -19.206814      -522.6440
   3   2.0000     -19.175758      -521.7989
   4   2.0000     -19.135885      -520.7139
   5   2.0000     -19.130954      -520.5797
   6   2.0000     -19.116282      -520.1805
   7   2.0000     -14.310505      -389.4086
   8   2.0000     -10.264485      -279.3108
   9   2.0000     -10.259917      -279.1865
  10   2.0000     -10.258104      -279.1372
  11   2.0000     -10.242625      -278.7160
  12   2.0000     -10.212615      -277.8994
  13   2.0000     -10.210130      -277.8318
  14   2.0000     -10.198908      -277.5264
  15   2.0000     -10.195508      -277.4339
  16   2.0000     -10.192083      -277.3407
  17   2.0000     -10.188508      -277.2434
  18   2.0000      -8.172587      -222.3874
  19   2.0000      -6.143026      -167.1602
  20   2.0000      -6.140814      -167.1001
  21   2.0000      -6.138214      -167.0293
  22   2.0000      -1.136069       -30.9140
  23   2.0000      -1.066843       -29.0303
  24   2.0000      -1.052382       -28.6368
  25   2.0000      -1.022685       -27.8287
  26   2.0000      -1.014894       -27.6167
  27   2.0000      -0.956331       -26.0231
  28   2.0000      -0.906302       -24.6617
  29   2.0000      -0.867849       -23.6154
  30   2.0000      -0.785173       -21.3657
  31   2.0000      -0.763754       -20.7828
  32   2.0000      -0.733130       -19.9495
  33   2.0000      -0.708468       -19.2784
  34   2.0000      -0.691315       -18.8116
  35   2.0000      -0.659772       -17.9533
  36   2.0000      -0.630958       -17.1693
  37   2.0000      -0.615800       -16.7568
  38   2.0000      -0.591488       -16.0952
  39   2.0000      -0.578042       -15.7293
  40   2.0000      -0.550105       -14.9691
  41   2.0000      -0.533353       -14.5133
  42   2.0000      -0.505232       -13.7481
  43   2.0000      -0.495255       -13.4766
  44   2.0000      -0.492772       -13.4090
  45   2.0000      -0.483040       -13.1442
  46   2.0000      -0.482070       -13.1178
  47   2.0000      -0.471954       -12.8425
  48   2.0000      -0.470254       -12.7963
  49   2.0000      -0.457572       -12.4512
  50   2.0000      -0.447193       -12.1687
  51   2.0000      -0.442768       -12.0483
  52   2.0000      -0.433751       -11.8030
  53   2.0000      -0.413887       -11.2624
  54   2.0000      -0.407896       -11.0994
  55   2.0000      -0.407661       -11.0930
  56   2.0000      -0.397838       -10.8257
  57   2.0000      -0.384979       -10.4758
  58   2.0000      -0.377112       -10.2617
  59   2.0000      -0.373987       -10.1767
  60   2.0000      -0.367009        -9.9868
  61   2.0000      -0.358057        -9.7432
  62   2.0000      -0.344133        -9.3643
  63   2.0000      -0.339570        -9.2402
  64   2.0000      -0.333467        -9.0741
  65   2.0000      -0.323127        -8.7927
  66   2.0000      -0.320166        -8.7122
  67   2.0000      -0.293059        -7.9745
  68   2.0000      -0.284276        -7.7355
  69   2.0000      -0.273297        -7.4368
  70   2.0000      -0.257487        -7.0066
  71   2.0000      -0.238808        -6.4983
  72   2.0000      -0.216882        -5.9016
  73   0.0000      -0.061340        -1.6691
  74   0.0000      -0.014478        -0.3940
  75   0.0000      -0.004205        -0.1144
  76   0.0000       0.027581         0.7505
  77   0.0000       0.034288         0.9330

MULLIKEN ATOMIC CHARGES
-----------------------
   0 C :    0.083656
   1 N :   -0.279127
   2 C :    0.163597
   3 C :    0.165935
   4 C :    0.083567
   5 C :   -0.150388
   6 C :    0.290326
   7 C :    0.142815
   8 C :    0.009657
   9 C :   -0.018515
  10 O :   -0.380811
  11 S :    1.149435
  12 O :   -0.473319
  13 O :   -0.433935
  14 O :   -0.354185
  15 O :   -0.349983
  16 C :    0.172126
  17 O :   -0.313486
  18 H :    0.011275
  19 H :    0.024466
  20 H :   -0.011882
  21 H :    0.108942
  22 H :   -0.011780
  23 H :   -0.030666
  24 H :   -0.020230
  25 H :   -0.033913
  26 H :   -0.012068
  27 H :   -0.042707
  28 H :    0.237103
  29 H :    0.034199
  30 H :    0.029420
  31 H :    0.033790
  32 H :    0.176686
Sum of atomic charges:   -0.0000000

LOEWDIN ATOMIC CHARGES
----------------------
   0 C :   -0.001858
   1 N :   -0.124509
   2 C :    0.017786
   3 C :    0.053471
   4 C :   -0.010142
   5 C :   -0.049546
   6 C :    0.057255
   7 C :   -0.016920
   8 C :   -0.013256
   9 C :   -0.029270
  10 O :   -0.228293
  11 S :    1.282172
  12 O :   -0.524006
  13 O :   -0.482569
  14 O :   -0.263334
  15 O :   -0.128648
  16 C :    0.078766
  17 O :   -0.128174
  18 H :    0.013880
  19 H :    0.019566
  20 H :    0.007243
  21 H :    0.072323
  22 H :    0.020993
  23 H :   -0.006549
  24 H :    0.009785
  25 H :    0.025665
  26 H :    0.041914
  27 H :    0.022592
  28 H :    0.122017
  29 H :    0.020570
  30 H :    0.014542
  31 H :    0.031011
  32 H :    0.095523

  Mayer bond orders larger than 0.100000
B(  0-C ,  1-N ) :   1.0380 B(  0-C , 18-H ) :   0.9665 B(  0-C , 19-H ) :   0.9708
B(  0-C , 20-H ) :   0.9658 B(  1-N ,  2-C ) :   1.0724 B(  1-N , 21-H ) :   0.9464
B(  2-C ,  3-C ) :   1.0441 B(  2-C , 22-H ) :   0.9213 B(  2-C , 23-H ) :   0.9209
B(  3-C ,  4-C ) :   0.9612 B(  3-C , 17-O ) :   1.0532 B(  3-C , 24-H ) :   0.9288
B(  4-C ,  5-C ) :   1.3286 B(  4-C ,  9-C ) :   1.4126 B(  5-C ,  6-C ) :   1.3063
B(  5-C , 25-H ) :   0.9894 B(  6-C ,  7-C ) :   1.3439 B(  6-C , 15-O ) :   1.1066
B(  7-C ,  8-C ) :   1.3991 B(  7-C , 10-O ) :   0.9507 B(  8-C ,  9-C ) :   1.3081
B(  8-C , 26-H ) :   1.0057 B(  9-C , 27-H ) :   0.9916 B( 10-O , 11-S ) :   0.8580
B( 11-S , 12-O ) :   1.6633 B( 11-S , 13-O ) :   1.7127 B( 11-S , 14-O ) :   0.9370
B( 14-O , 28-H ) :   0.9123 B( 15-O , 16-C ) :   0.9568 B( 16-C , 29-H ) :   0.9721
B( 16-C , 30-H ) :   0.9623 B( 16-C , 31-H ) :   0.9742 B( 17-O , 32-H ) :   0.9692

FINAL SINGLE POINT ENERGY     -1292.877006292884

DIPOLE MOMENT
-------------
                                X             Y             Z
Electronic contribution:    -27.54843       2.13407      11.35394
Nuclear contribution   :     29.63493      -3.04363     -13.45635
                        -----------------------------------------
Total Dipole Moment    :      2.08650      -0.90956      -2.10241
                        -----------------------------------------
Magnitude (a.u.)       :      3.09854
Magnitude (Debye)      :      7.87585

Rotational constants in cm-1:     0.024214     0.006262     0.005617
Rotational constants in MHz :   725.915769   187.728129   168.384486

                             ****ORCA TERMINATED NORMALLY****
TOTAL RUN TIME: 0 days 0 hours 8 minutes 22 seconds 38 msec
