                         Program Version 5.0.3 -  RELEASE  -
|  1> ! B3LYP DEF2-SVP TightSCF
|  2> %elprop
|  3> Polar 1
|  4> end
|  5> * xyzfile 0 1 _2.xyz
|  6>
|  7>                          ****END OF INPUT****

CARTESIAN COORDINATES (ANGSTROEM)
---------------------------------
  C     -3.600878    0.765831   -0.793043
  C     -2.562427    0.064197    0.038576
  C     -1.317896    0.516874    0.124526
  C     -0.332329   -0.217691    0.962130
  C      0.964619   -0.473345    0.258546
  C      0.925523   -1.531839   -0.763292
  C      0.042297   -2.497723   -0.703579
  C     -0.913572   -2.517859    0.392650
  O     -1.793635   -3.397632    0.537292
  O     -0.847266   -1.486467    1.350683
  O      1.530659    0.709019   -0.270606
  C      2.736636    1.165061    0.221369
  O      3.338824    0.540271    1.136185
  C      3.386796    2.405481   -0.294055
  H     -3.167289    1.159578   -1.730103
  H     -4.336532   -0.013152   -1.094238
  H     -4.155622    1.513361   -0.208379
  H     -2.798668   -0.836131    0.595609
  H     -1.008102    1.403649   -0.399052
  H     -0.126549    0.361488    1.876693
  H      1.666369   -0.861461    1.057797
  H      1.637611   -1.524127   -1.590016
  H      0.011641   -3.294475   -1.469499
  H      3.821843    2.924336    0.585148
  H      2.653752    3.024152   -0.843250
  H      4.244197    2.098604   -0.948939

 Total Charge           Charge          ....    0
 Multiplicity           Mult            ....    1
 Number of Electrons    NEL             ....  104
 Basis Dimension        Dim             ....  256

ORBITAL ENERGIES
----------------

  NO   OCC          E(Eh)            E(eV)
   0   2.0000     -19.201461      -522.4983
   1   2.0000     -19.172179      -521.7015
   2   2.0000     -19.131057      -520.5825
   3   2.0000     -19.121267      -520.3161
   4   2.0000     -10.337760      -281.3048
   5   2.0000     -10.321305      -280.8570
   6   2.0000     -10.265718      -279.3444
   7   2.0000     -10.261112      -279.2191
   8   2.0000     -10.223544      -278.1968
   9   2.0000     -10.223471      -278.1948
  10   2.0000     -10.210275      -277.8357
  11   2.0000     -10.185954      -277.1739
  12   2.0000     -10.184236      -277.1272
  13   2.0000     -10.180260      -277.0190
  14   2.0000      -1.104561       -30.0566
  15   2.0000      -1.076570       -29.2950
  16   2.0000      -1.002468       -27.2785
  17   2.0000      -0.991761       -26.9872
  18   2.0000      -0.841397       -22.8956
  19   2.0000      -0.806832       -21.9550
  20   2.0000      -0.776062       -21.1177
  21   2.0000      -0.751061       -20.4374
  22   2.0000      -0.699581       -19.0366
  23   2.0000      -0.656086       -17.8530
  24   2.0000      -0.643598       -17.5132
  25   2.0000      -0.596680       -16.2365
  26   2.0000      -0.572284       -15.5726
  27   2.0000      -0.537606       -14.6290
  28   2.0000      -0.523724       -14.2513
  29   2.0000      -0.506157       -13.7732
  30   2.0000      -0.502226       -13.6663
  31   2.0000      -0.481170       -13.0933
  32   2.0000      -0.470198       -12.7947
  33   2.0000      -0.464966       -12.6524
  34   2.0000      -0.445446       -12.1212
  35   2.0000      -0.431839       -11.7509
  36   2.0000      -0.429822       -11.6961
  37   2.0000      -0.423907       -11.5351
  38   2.0000      -0.418556       -11.3895
  39   2.0000      -0.416482       -11.3330
  40   2.0000      -0.407740       -11.0952
  41   2.0000      -0.392771       -10.6878
  42   2.0000      -0.377067       -10.2605
  43   2.0000      -0.365170        -9.9368
  44   2.0000      -0.359847        -9.7919
  45   2.0000      -0.338943        -9.2231
  46   2.0000      -0.317588        -8.6420
  47   2.0000      -0.300106        -8.1663
  48   2.0000      -0.292364        -7.9556
  49   2.0000      -0.278569        -7.5803
  50   2.0000      -0.273371        -7.4388
  51   2.0000      -0.255615        -6.9556
  52   0.0000      -0.066237        -1.8024
  53   0.0000      -0.026206        -0.7131
  54   0.0000       0.006378         0.1736
  55   0.0000       0.048450         1.3184
  56   0.0000       0.053990         1.4691

MULLIKEN ATOMIC CHARGES
-----------------------
   0 C :    0.064978
   1 C :   -0.082326
   2 C :   -0.091065
   3 C :    0.251005
   4 C :    0.196436
   5 C :    0.013489
   6 C :   -0.029482
   7 C :    0.258979
   8 O :   -0.226845
   9 O :   -0.332211
  10 O :   -0.316961
  11 C :    0.152102
  12 O :   -0.285136
  13 C :    0.054859
  14 H :    0.022563
  15 H :    0.016265
  16 H :    0.035396
  17 H :    0.037306
  18 H :   -0.017732
  19 H :    0.021350
  20 H :    0.061421
  21 H :    0.007449
  22 H :    0.017468
  23 H :    0.065517
  24 H :    0.037409
  25 H :    0.067765
Sum of atomic charges:   -0.0000000

LOEWDIN ATOMIC CHARGES
----------------------
   0 C :   -0.055587
   1 C :   -0.020919
   2 C :   -0.067706
   3 C :    0.076162
   4 C :    0.048224
   5 C :    0.024863
   6 C :   -0.067596
   7 C :    0.129230
   8 O :   -0.180734
   9 O :   -0.115257
  10 O :   -0.097593
  11 C :    0.129901
  12 O :   -0.219471
  13 C :   -0.065405
  14 H :    0.031443
  15 H :    0.033316
  16 H :    0.035507
  17 H :    0.028615
  18 H :    0.019156
  19 H :    0.036919
  20 H :    0.045595
  21 H :    0.039310
  22 H :    0.049571
  23 H :    0.060398
  24 H :    0.038000
  25 H :    0.064056

  Mayer bond orders larger than 0.100000
B(  0-C ,  1-C ) :   1.0491 B(  0-C , 14-H ) :   0.9689 B(  0-C , 15-H ) :   0.9611
B(  0-C , 16-H ) :   0.9554 B(  1-C ,  2-C ) :   1.9313 B(  1-C , 17-H ) :   0.9427
B(  2-C ,  3-C ) :   0.9821 B(  2-C , 18-H ) :   0.9724 B(  3-C ,  4-C ) :   1.0521
B(  3-C ,  9-O ) :   0.9547 B(  3-C , 19-H ) :   0.8988 B(  4-C ,  5-C ) :   1.0000
B(  4-C , 10-O ) :   0.8833 B(  4-C , 20-H ) :   0.8559 B(  5-C ,  6-C ) :   1.7831
B(  5-C , 21-H ) :   0.9607 B(  6-C ,  7-C ) :   1.0123 B(  6-C , 22-H ) :   0.9734
B(  7-C ,  8-O ) :   2.0680 B(  7-C ,  9-O ) :   1.0292 B( 10-O , 11-C ) :   1.1159
B( 11-C , 12-O ) :   1.9716 B( 11-C , 13-C ) :   1.0580 B( 13-C , 23-H ) :   0.9501
B( 13-C , 24-H ) :   0.9476 B( 13-C , 25-H ) :   0.9411

FINAL SINGLE POINT ENERGY      -688.242622116787

DIPOLE MOMENT
-------------
                                X             Y             Z
Electronic contribution:      3.76885      -8.57064       4.56569
Nuclear contribution   :     -2.92917      10.14998      -5.78325
                        -----------------------------------------
Total Dipole Moment    :      0.83969       1.57934      -1.21756
                        -----------------------------------------
Magnitude (a.u.)       :      2.16376
Magnitude (Debye)      :      5.49984

Rotational constants in cm-1:     0.036092     0.014739     0.011860
Rotational constants in MHz :  1081.998648   441.875882   355.559990

                             ****ORCA TERMINATED NORMALLY****
TOTAL RUN TIME: 0 days 0 hours 3 minutes 56 seconds 769 msec
