                         Program Version 5.0.3 -  RELEASE  -
|  1> ! B3LYP DEF2-SVP TightSCF
|  2> %elprop
|  3> Polar 1
|  4> end
|  5> * xyzfile 0 1 _78.xyz
|  6>
|  7>                          ****END OF INPUT****

CARTESIAN COORDINATES (ANGSTROEM)
---------------------------------
  C     -5.733751    0.775321   -1.909302
  C     -5.037852    0.345383   -0.670738
  C     -5.517579   -0.747321    0.004185
  C     -4.881935   -1.174238    1.173152
  C     -3.781250   -0.491949    1.632884
  C     -3.278248    0.613498    0.969536
  C     -3.927769    1.008668   -0.179755
  O     -2.185150    1.306031    1.409652
  C     -0.875961    1.026991    1.046946
  C     -0.503024    0.021148    0.199976
  C      0.811205   -0.235977   -0.145645
  C      1.815103    0.576553    0.405848
  C      3.216165    0.319881    0.211259
  C      3.369402   -0.701117   -0.854633
  C      4.710331   -0.740473   -1.093130
  C      5.334528    0.401391   -0.326306
  O      4.157054    1.241245   -0.088344
  C      5.120724   -1.717007   -1.974533
  C      4.196629   -2.585655   -2.564669
  C      2.846114   -2.454532   -2.254919
  C      2.405554   -1.479287   -1.371634
  O      1.053284   -1.283973   -1.036132
  C      1.456140    1.614195    1.273908
  C      0.130183    1.807913    1.567237
  C      2.521224    2.493663    1.866801
  O     -5.354524   -2.278747    1.868918
  H     -6.815298    0.876197   -1.765407
  H     -5.499594    0.116641   -2.769353
  H     -5.354929    1.788543   -2.188816
  H     -6.372063   -1.320949   -0.304344
  H     -3.313817   -0.852302    2.543587
  H     -3.561610    1.857992   -0.711737
  H     -1.288970   -0.597665   -0.213543
  H      3.578401   -0.228825    1.182250
  H      5.782624    0.105166    0.610539
  H      5.937039    0.997235   -1.019766
  H      6.181067   -1.787798   -2.193670
  H      4.539609   -3.350003   -3.255206
  H      2.128095   -3.124241   -2.710587
  H     -0.128663    2.620615    2.244860
  H      3.028641    3.091349    1.081855
  H      2.035939    3.115065    2.644871
  H      3.224336    1.815956    2.399320
  H     -6.167406   -2.784580    1.531528

 Total Charge           Charge          ....    0
 Multiplicity           Mult            ....    1
 Number of Electrons    NEL             ....  182
 Basis Dimension        Dim             ....  454

ORBITAL ENERGIES
----------------

  NO   OCC          E(Eh)            E(eV)
   0   2.0000     -19.182429      -521.9804
   1   2.0000     -19.168014      -521.5882
   2   2.0000     -19.157308      -521.2968
   3   2.0000     -19.139300      -520.8068
   4   2.0000     -10.250891      -278.9409
   5   2.0000     -10.247670      -278.8533
   6   2.0000     -10.247434      -278.8469
   7   2.0000     -10.246873      -278.8316
   8   2.0000     -10.245926      -278.8058
   9   2.0000     -10.245479      -278.7937
  10   2.0000     -10.233752      -278.4745
  11   2.0000     -10.193832      -277.3883
  12   2.0000     -10.192079      -277.3406
  13   2.0000     -10.191085      -277.3135
  14   2.0000     -10.189813      -277.2789
  15   2.0000     -10.189352      -277.2664
  16   2.0000     -10.187708      -277.2216
  17   2.0000     -10.186444      -277.1872
  18   2.0000     -10.179059      -276.9863
  19   2.0000     -10.178671      -276.9757
  20   2.0000     -10.177904      -276.9549
  21   2.0000     -10.177125      -276.9336
  22   2.0000     -10.176318      -276.9117
  23   2.0000     -10.172264      -276.8014
  24   2.0000     -10.171667      -276.7851
  25   2.0000     -10.169902      -276.7371
  26   2.0000      -1.066828       -29.0299
  27   2.0000      -1.063014       -28.9261
  28   2.0000      -1.057556       -28.7776
  29   2.0000      -1.021988       -27.8097
  30   2.0000      -0.868521       -23.6337
  31   2.0000      -0.862805       -23.4781
  32   2.0000      -0.852699       -23.2031
  33   2.0000      -0.794320       -21.6145
  34   2.0000      -0.778328       -21.1794
  35   2.0000      -0.771030       -20.9808
  36   2.0000      -0.755299       -20.5527
  37   2.0000      -0.753429       -20.5018
  38   2.0000      -0.731348       -19.9010
  39   2.0000      -0.697356       -18.9760
  40   2.0000      -0.684597       -18.6288
  41   2.0000      -0.679715       -18.4960
  42   2.0000      -0.649872       -17.6839
  43   2.0000      -0.640364       -17.4252
  44   2.0000      -0.625620       -17.0240
  45   2.0000      -0.609511       -16.5856
  46   2.0000      -0.600513       -16.3408
  47   2.0000      -0.570808       -15.5325
  48   2.0000      -0.559346       -15.2206
  49   2.0000      -0.554213       -15.0809
  50   2.0000      -0.531085       -14.4516
  51   2.0000      -0.521773       -14.1982
  52   2.0000      -0.505165       -13.7462
  53   2.0000      -0.500170       -13.6103
  54   2.0000      -0.497536       -13.5386
  55   2.0000      -0.490795       -13.3552
  56   2.0000      -0.489411       -13.3175
  57   2.0000      -0.480067       -13.0633
  58   2.0000      -0.470607       -12.8059
  59   2.0000      -0.445837       -12.1318
  60   2.0000      -0.439838       -11.9686
  61   2.0000      -0.431394       -11.7388
  62   2.0000      -0.431073       -11.7301
  63   2.0000      -0.422630       -11.5004
  64   2.0000      -0.415962       -11.3189
  65   2.0000      -0.412688       -11.2298
  66   2.0000      -0.407872       -11.0987
  67   2.0000      -0.402141       -10.9428
  68   2.0000      -0.399716       -10.8768
  69   2.0000      -0.399279       -10.8649
  70   2.0000      -0.392623       -10.6838
  71   2.0000      -0.388772       -10.5790
  72   2.0000      -0.377620       -10.2756
  73   2.0000      -0.376942       -10.2571
  74   2.0000      -0.375039       -10.2053
  75   2.0000      -0.367397        -9.9974
  76   2.0000      -0.361297        -9.8314
  77   2.0000      -0.358027        -9.7424
  78   2.0000      -0.352115        -9.5815
  79   2.0000      -0.337023        -9.1709
  80   2.0000      -0.333562        -9.0767
  81   2.0000      -0.322948        -8.7879
  82   2.0000      -0.317425        -8.6376
  83   2.0000      -0.309041        -8.4094
  84   2.0000      -0.268227        -7.2988
  85   2.0000      -0.258987        -7.0474
  86   2.0000      -0.248547        -6.7633
  87   2.0000      -0.245817        -6.6890
  88   2.0000      -0.230433        -6.2704
  89   2.0000      -0.224608        -6.1119
  90   2.0000      -0.213832        -5.8187
  91   0.0000      -0.015556        -0.4233
  92   0.0000      -0.009662        -0.2629
  93   0.0000      -0.005941        -0.1617
  94   0.0000       0.005991         0.1630
  95   0.0000       0.008820         0.2400

MULLIKEN ATOMIC CHARGES
-----------------------
   0 C :    0.078910
   1 C :   -0.013817
   2 C :   -0.083229
   3 C :    0.226729
   4 C :   -0.092077
   5 C :    0.227917
   6 C :   -0.036119
   7 O :   -0.283096
   8 C :    0.327909
   9 C :   -0.174651
  10 C :    0.248290
  11 C :   -0.057983
  12 C :    0.228334
  13 C :   -0.100303
  14 C :   -0.117421
  15 C :    0.464810
  16 O :   -0.363844
  17 C :   -0.089395
  18 C :    0.062054
  19 C :   -0.085082
  20 C :    0.244340
  21 O :   -0.289564
  22 C :   -0.111074
  23 C :   -0.115751
  24 C :    0.166362
  25 O :   -0.264827
  26 H :    0.023146
  27 H :    0.033735
  28 H :    0.005740
  29 H :   -0.074299
  30 H :   -0.033531
  31 H :   -0.057503
  32 H :   -0.026738
  33 H :   -0.011260
  34 H :    0.000163
  35 H :    0.016751
  36 H :   -0.042152
  37 H :   -0.018665
  38 H :   -0.028505
  39 H :   -0.047615
  40 H :    0.048016
  41 H :   -0.002962
  42 H :    0.011783
  43 H :    0.206477
Sum of atomic charges:   -0.0000000

LOEWDIN ATOMIC CHARGES
----------------------
   0 C :   -0.042310
   1 C :   -0.017891
   2 C :   -0.073810
   3 C :    0.068498
   4 C :   -0.069070
   5 C :    0.054295
   6 C :   -0.059142
   7 O :   -0.067816
   8 C :    0.073314
   9 C :   -0.079296
  10 C :    0.077628
  11 C :   -0.083568
  12 C :    0.037321
  13 C :   -0.052645
  14 C :   -0.038000
  15 C :    0.124248
  16 O :   -0.141411
  17 C :   -0.031477
  18 C :   -0.019936
  19 C :   -0.029365
  20 C :    0.057914
  21 O :   -0.076614
  22 C :   -0.004214
  23 C :   -0.058910
  24 C :   -0.038986
  25 O :   -0.108290
  26 H :    0.032093
  27 H :    0.037686
  28 H :    0.030906
  29 H :    0.014294
  30 H :    0.034978
  31 H :    0.022329
  32 H :    0.034910
  33 H :    0.005313
  34 H :    0.020732
  35 H :    0.033990
  36 H :    0.019259
  37 H :    0.030409
  38 H :    0.029430
  39 H :    0.026049
  40 H :    0.041914
  41 H :    0.025328
  42 H :    0.034914
  43 H :    0.124998

  Mayer bond orders larger than 0.100000
B(  0-C ,  1-C ) :   1.0543 B(  0-C , 26-H ) :   0.9569 B(  0-C , 27-H ) :   0.9514
B(  0-C , 28-H ) :   0.9566 B(  1-C ,  2-C ) :   1.3595 B(  1-C ,  6-C ) :   1.3355
B(  2-C ,  3-C ) :   1.3178 B(  2-C , 29-H ) :   0.9972 B(  3-C ,  4-C ) :   1.3230
B(  3-C , 25-O ) :   1.1460 B(  4-C ,  5-C ) :   1.3396 B(  4-C , 30-H ) :   1.0149
B(  5-C ,  6-C ) :   1.3661 B(  5-C ,  7-O ) :   0.9982 B(  6-C , 31-H ) :   1.0069
B(  7-O ,  8-C ) :   1.0513 B(  8-C ,  9-C ) :   1.3092 B(  8-C , 23-C ) :   1.2928
B(  9-C , 10-C ) :   1.2805 B(  9-C , 32-H ) :   1.0079 B( 10-C , 11-C ) :   1.3456
B( 10-C , 21-O ) :   1.0730 B( 11-C , 12-C ) :   1.0081 B( 11-C , 22-C ) :   1.3567
B( 12-C , 13-C ) :   0.9484 B( 12-C , 16-O ) :   1.0475 B( 12-C , 33-H ) :   0.8366
B( 13-C , 14-C ) :   1.3880 B( 13-C , 20-C ) :   1.3664 B( 14-C , 15-C ) :   1.0099
B( 14-C , 17-C ) :   1.3880 B( 15-C , 16-O ) :   0.9633 B( 15-C , 34-H ) :   0.8771
B( 15-C , 35-H ) :   0.9258 B( 17-C , 18-C ) :   1.3281 B( 17-C , 36-H ) :   0.9964
B( 18-C , 19-C ) :   1.3719 B( 18-C , 37-H ) :   0.9945 B( 19-C , 20-C ) :   1.3202
B( 19-C , 38-H ) :   0.9929 B( 20-C , 21-O ) :   1.0567 B( 22-C , 23-C ) :   1.3744
B( 22-C , 24-C ) :   1.1092 B( 23-C , 39-H ) :   1.0033 B( 24-C , 40-H ) :   0.9340
B( 24-C , 41-H ) :   0.9432 B( 24-C , 42-H ) :   0.9200 B( 25-O , 43-H ) :   0.9318

FINAL SINGLE POINT ENERGY     -1148.494376788708

DIPOLE MOMENT
-------------
                                X             Y             Z
Electronic contribution:      2.52141      -4.26866       1.97343
Nuclear contribution   :     -2.63128       3.63571      -2.46718
                        -----------------------------------------
Total Dipole Moment    :     -0.10987      -0.63295      -0.49375
                        -----------------------------------------
Magnitude (a.u.)       :      0.81024
Magnitude (Debye)      :      2.05946

Rotational constants in cm-1:     0.013978     0.003273     0.002911
Rotational constants in MHz :   419.041990    98.126134    87.281577

                             ****ORCA TERMINATED NORMALLY****
TOTAL RUN TIME: 0 days 0 hours 15 minutes 3 seconds 194 msec
